 # Fcc Ni oriented X=[100], Y=[010], Z=[001].
 
         500  atoms
           1  atom types
 
      0.00000000      17.62000000  xlo xhi
      0.00000000      17.62000000  ylo yhi
      0.00000000      17.62000000  zlo zhi
 
Atoms
 
         1    1        0.00000000       0.00000000       0.00000000
         2    1        1.76200000       1.76200000       0.00000000
         3    1        0.00000000       1.76200000       1.76200000
         4    1        1.76200000       0.00000000       1.76200000
         5    1        3.52400000       0.00000000       0.00000000
         6    1        5.28600000       1.76200000       0.00000000
         7    1        3.52400000       1.76200000       1.76200000
         8    1        5.28600000       0.00000000       1.76200000
         9    1        7.04800000       0.00000000       0.00000000
        10    1        8.81000000       1.76200000       0.00000000
        11    1        7.04800000       1.76200000       1.76200000
        12    1        8.81000000       0.00000000       1.76200000
        13    1       10.57200000       0.00000000       0.00000000
        14    1       12.33400000       1.76200000       0.00000000
        15    1       10.57200000       1.76200000       1.76200000
        16    1       12.33400000       0.00000000       1.76200000
        17    1       14.09600000       0.00000000       0.00000000
        18    1       15.85800000       1.76200000       0.00000000
        19    1       14.09600000       1.76200000       1.76200000
        20    1       15.85800000       0.00000000       1.76200000
        21    1        0.00000000       3.52400000       0.00000000
        22    1        1.76200000       5.28600000       0.00000000
        23    1        0.00000000       5.28600000       1.76200000
        24    1        1.76200000       3.52400000       1.76200000
        25    1        3.52400000       3.52400000       0.00000000
        26    1        5.28600000       5.28600000       0.00000000
        27    1        3.52400000       5.28600000       1.76200000
        28    1        5.28600000       3.52400000       1.76200000
        29    1        7.04800000       3.52400000       0.00000000
        30    1        8.81000000       5.28600000       0.00000000
        31    1        7.04800000       5.28600000       1.76200000
        32    1        8.81000000       3.52400000       1.76200000
        33    1       10.57200000       3.52400000       0.00000000
        34    1       12.33400000       5.28600000       0.00000000
        35    1       10.57200000       5.28600000       1.76200000
        36    1       12.33400000       3.52400000       1.76200000
        37    1       14.09600000       3.52400000       0.00000000
        38    1       15.85800000       5.28600000       0.00000000
        39    1       14.09600000       5.28600000       1.76200000
        40    1       15.85800000       3.52400000       1.76200000
        41    1        0.00000000       7.04800000       0.00000000
        42    1        1.76200000       8.81000000       0.00000000
        43    1        0.00000000       8.81000000       1.76200000
        44    1        1.76200000       7.04800000       1.76200000
        45    1        3.52400000       7.04800000       0.00000000
        46    1        5.28600000       8.81000000       0.00000000
        47    1        3.52400000       8.81000000       1.76200000
        48    1        5.28600000       7.04800000       1.76200000
        49    1        7.04800000       7.04800000       0.00000000
        50    1        8.81000000       8.81000000       0.00000000
        51    1        7.04800000       8.81000000       1.76200000
        52    1        8.81000000       7.04800000       1.76200000
        53    1       10.57200000       7.04800000       0.00000000
        54    1       12.33400000       8.81000000       0.00000000
        55    1       10.57200000       8.81000000       1.76200000
        56    1       12.33400000       7.04800000       1.76200000
        57    1       14.09600000       7.04800000       0.00000000
        58    1       15.85800000       8.81000000       0.00000000
        59    1       14.09600000       8.81000000       1.76200000
        60    1       15.85800000       7.04800000       1.76200000
        61    1        0.00000000      10.57200000       0.00000000
        62    1        1.76200000      12.33400000       0.00000000
        63    1        0.00000000      12.33400000       1.76200000
        64    1        1.76200000      10.57200000       1.76200000
        65    1        3.52400000      10.57200000       0.00000000
        66    1        5.28600000      12.33400000       0.00000000
        67    1        3.52400000      12.33400000       1.76200000
        68    1        5.28600000      10.57200000       1.76200000
        69    1        7.04800000      10.57200000       0.00000000
        70    1        8.81000000      12.33400000       0.00000000
        71    1        7.04800000      12.33400000       1.76200000
        72    1        8.81000000      10.57200000       1.76200000
        73    1       10.57200000      10.57200000       0.00000000
        74    1       12.33400000      12.33400000       0.00000000
        75    1       10.57200000      12.33400000       1.76200000
        76    1       12.33400000      10.57200000       1.76200000
        77    1       14.09600000      10.57200000       0.00000000
        78    1       15.85800000      12.33400000       0.00000000
        79    1       14.09600000      12.33400000       1.76200000
        80    1       15.85800000      10.57200000       1.76200000
        81    1        0.00000000      14.09600000       0.00000000
        82    1        1.76200000      15.85800000       0.00000000
        83    1        0.00000000      15.85800000       1.76200000
        84    1        1.76200000      14.09600000       1.76200000
        85    1        3.52400000      14.09600000       0.00000000
        86    1        5.28600000      15.85800000       0.00000000
        87    1        3.52400000      15.85800000       1.76200000
        88    1        5.28600000      14.09600000       1.76200000
        89    1        7.04800000      14.09600000       0.00000000
        90    1        8.81000000      15.85800000       0.00000000
        91    1        7.04800000      15.85800000       1.76200000
        92    1        8.81000000      14.09600000       1.76200000
        93    1       10.57200000      14.09600000       0.00000000
        94    1       12.33400000      15.85800000       0.00000000
        95    1       10.57200000      15.85800000       1.76200000
        96    1       12.33400000      14.09600000       1.76200000
        97    1       14.09600000      14.09600000       0.00000000
        98    1       15.85800000      15.85800000       0.00000000
        99    1       14.09600000      15.85800000       1.76200000
       100    1       15.85800000      14.09600000       1.76200000
       101    1        0.00000000       0.00000000       3.52400000
       102    1        1.76200000       1.76200000       3.52400000
       103    1        0.00000000       1.76200000       5.28600000
       104    1        1.76200000       0.00000000       5.28600000
       105    1        3.52400000       0.00000000       3.52400000
       106    1        5.28600000       1.76200000       3.52400000
       107    1        3.52400000       1.76200000       5.28600000
       108    1        5.28600000       0.00000000       5.28600000
       109    1        7.04800000       0.00000000       3.52400000
       110    1        8.81000000       1.76200000       3.52400000
       111    1        7.04800000       1.76200000       5.28600000
       112    1        8.81000000       0.00000000       5.28600000
       113    1       10.57200000       0.00000000       3.52400000
       114    1       12.33400000       1.76200000       3.52400000
       115    1       10.57200000       1.76200000       5.28600000
       116    1       12.33400000       0.00000000       5.28600000
       117    1       14.09600000       0.00000000       3.52400000
       118    1       15.85800000       1.76200000       3.52400000
       119    1       14.09600000       1.76200000       5.28600000
       120    1       15.85800000       0.00000000       5.28600000
       121    1        0.00000000       3.52400000       3.52400000
       122    1        1.76200000       5.28600000       3.52400000
       123    1        0.00000000       5.28600000       5.28600000
       124    1        1.76200000       3.52400000       5.28600000
       125    1        3.52400000       3.52400000       3.52400000
       126    1        5.28600000       5.28600000       3.52400000
       127    1        3.52400000       5.28600000       5.28600000
       128    1        5.28600000       3.52400000       5.28600000
       129    1        7.04800000       3.52400000       3.52400000
       130    1        8.81000000       5.28600000       3.52400000
       131    1        7.04800000       5.28600000       5.28600000
       132    1        8.81000000       3.52400000       5.28600000
       133    1       10.57200000       3.52400000       3.52400000
       134    1       12.33400000       5.28600000       3.52400000
       135    1       10.57200000       5.28600000       5.28600000
       136    1       12.33400000       3.52400000       5.28600000
       137    1       14.09600000       3.52400000       3.52400000
       138    1       15.85800000       5.28600000       3.52400000
       139    1       14.09600000       5.28600000       5.28600000
       140    1       15.85800000       3.52400000       5.28600000
       141    1        0.00000000       7.04800000       3.52400000
       142    1        1.76200000       8.81000000       3.52400000
       143    1        0.00000000       8.81000000       5.28600000
       144    1        1.76200000       7.04800000       5.28600000
       145    1        3.52400000       7.04800000       3.52400000
       146    1        5.28600000       8.81000000       3.52400000
       147    1        3.52400000       8.81000000       5.28600000
       148    1        5.28600000       7.04800000       5.28600000
       149    1        7.04800000       7.04800000       3.52400000
       150    1        8.81000000       8.81000000       3.52400000
       151    1        7.04800000       8.81000000       5.28600000
       152    1        8.81000000       7.04800000       5.28600000
       153    1       10.57200000       7.04800000       3.52400000
       154    1       12.33400000       8.81000000       3.52400000
       155    1       10.57200000       8.81000000       5.28600000
       156    1       12.33400000       7.04800000       5.28600000
       157    1       14.09600000       7.04800000       3.52400000
       158    1       15.85800000       8.81000000       3.52400000
       159    1       14.09600000       8.81000000       5.28600000
       160    1       15.85800000       7.04800000       5.28600000
       161    1        0.00000000      10.57200000       3.52400000
       162    1        1.76200000      12.33400000       3.52400000
       163    1        0.00000000      12.33400000       5.28600000
       164    1        1.76200000      10.57200000       5.28600000
       165    1        3.52400000      10.57200000       3.52400000
       166    1        5.28600000      12.33400000       3.52400000
       167    1        3.52400000      12.33400000       5.28600000
       168    1        5.28600000      10.57200000       5.28600000
       169    1        7.04800000      10.57200000       3.52400000
       170    1        8.81000000      12.33400000       3.52400000
       171    1        7.04800000      12.33400000       5.28600000
       172    1        8.81000000      10.57200000       5.28600000
       173    1       10.57200000      10.57200000       3.52400000
       174    1       12.33400000      12.33400000       3.52400000
       175    1       10.57200000      12.33400000       5.28600000
       176    1       12.33400000      10.57200000       5.28600000
       177    1       14.09600000      10.57200000       3.52400000
       178    1       15.85800000      12.33400000       3.52400000
       179    1       14.09600000      12.33400000       5.28600000
       180    1       15.85800000      10.57200000       5.28600000
       181    1        0.00000000      14.09600000       3.52400000
       182    1        1.76200000      15.85800000       3.52400000
       183    1        0.00000000      15.85800000       5.28600000
       184    1        1.76200000      14.09600000       5.28600000
       185    1        3.52400000      14.09600000       3.52400000
       186    1        5.28600000      15.85800000       3.52400000
       187    1        3.52400000      15.85800000       5.28600000
       188    1        5.28600000      14.09600000       5.28600000
       189    1        7.04800000      14.09600000       3.52400000
       190    1        8.81000000      15.85800000       3.52400000
       191    1        7.04800000      15.85800000       5.28600000
       192    1        8.81000000      14.09600000       5.28600000
       193    1       10.57200000      14.09600000       3.52400000
       194    1       12.33400000      15.85800000       3.52400000
       195    1       10.57200000      15.85800000       5.28600000
       196    1       12.33400000      14.09600000       5.28600000
       197    1       14.09600000      14.09600000       3.52400000
       198    1       15.85800000      15.85800000       3.52400000
       199    1       14.09600000      15.85800000       5.28600000
       200    1       15.85800000      14.09600000       5.28600000
       201    1        0.00000000       0.00000000       7.04800000
       202    1        1.76200000       1.76200000       7.04800000
       203    1        0.00000000       1.76200000       8.81000000
       204    1        1.76200000       0.00000000       8.81000000
       205    1        3.52400000       0.00000000       7.04800000
       206    1        5.28600000       1.76200000       7.04800000
       207    1        3.52400000       1.76200000       8.81000000
       208    1        5.28600000       0.00000000       8.81000000
       209    1        7.04800000       0.00000000       7.04800000
       210    1        8.81000000       1.76200000       7.04800000
       211    1        7.04800000       1.76200000       8.81000000
       212    1        8.81000000       0.00000000       8.81000000
       213    1       10.57200000       0.00000000       7.04800000
       214    1       12.33400000       1.76200000       7.04800000
       215    1       10.57200000       1.76200000       8.81000000
       216    1       12.33400000       0.00000000       8.81000000
       217    1       14.09600000       0.00000000       7.04800000
       218    1       15.85800000       1.76200000       7.04800000
       219    1       14.09600000       1.76200000       8.81000000
       220    1       15.85800000       0.00000000       8.81000000
       221    1        0.00000000       3.52400000       7.04800000
       222    1        1.76200000       5.28600000       7.04800000
       223    1        0.00000000       5.28600000       8.81000000
       224    1        1.76200000       3.52400000       8.81000000
       225    1        3.52400000       3.52400000       7.04800000
       226    1        5.28600000       5.28600000       7.04800000
       227    1        3.52400000       5.28600000       8.81000000
       228    1        5.28600000       3.52400000       8.81000000
       229    1        7.04800000       3.52400000       7.04800000
       230    1        8.81000000       5.28600000       7.04800000
       231    1        7.04800000       5.28600000       8.81000000
       232    1        8.81000000       3.52400000       8.81000000
       233    1       10.57200000       3.52400000       7.04800000
       234    1       12.33400000       5.28600000       7.04800000
       235    1       10.57200000       5.28600000       8.81000000
       236    1       12.33400000       3.52400000       8.81000000
       237    1       14.09600000       3.52400000       7.04800000
       238    1       15.85800000       5.28600000       7.04800000
       239    1       14.09600000       5.28600000       8.81000000
       240    1       15.85800000       3.52400000       8.81000000
       241    1        0.00000000       7.04800000       7.04800000
       242    1        1.76200000       8.81000000       7.04800000
       243    1        0.00000000       8.81000000       8.81000000
       244    1        1.76200000       7.04800000       8.81000000
       245    1        3.52400000       7.04800000       7.04800000
       246    1        5.28600000       8.81000000       7.04800000
       247    1        3.52400000       8.81000000       8.81000000
       248    1        5.28600000       7.04800000       8.81000000
       249    1        7.04800000       7.04800000       7.04800000
       250    1        8.81000000       8.81000000       7.04800000
       251    1        7.04800000       8.81000000       8.81000000
       252    1        8.81000000       7.04800000       8.81000000
       253    1       10.57200000       7.04800000       7.04800000
       254    1       12.33400000       8.81000000       7.04800000
       255    1       10.57200000       8.81000000       8.81000000
       256    1       12.33400000       7.04800000       8.81000000
       257    1       14.09600000       7.04800000       7.04800000
       258    1       15.85800000       8.81000000       7.04800000
       259    1       14.09600000       8.81000000       8.81000000
       260    1       15.85800000       7.04800000       8.81000000
       261    1        0.00000000      10.57200000       7.04800000
       262    1        1.76200000      12.33400000       7.04800000
       263    1        0.00000000      12.33400000       8.81000000
       264    1        1.76200000      10.57200000       8.81000000
       265    1        3.52400000      10.57200000       7.04800000
       266    1        5.28600000      12.33400000       7.04800000
       267    1        3.52400000      12.33400000       8.81000000
       268    1        5.28600000      10.57200000       8.81000000
       269    1        7.04800000      10.57200000       7.04800000
       270    1        8.81000000      12.33400000       7.04800000
       271    1        7.04800000      12.33400000       8.81000000
       272    1        8.81000000      10.57200000       8.81000000
       273    1       10.57200000      10.57200000       7.04800000
       274    1       12.33400000      12.33400000       7.04800000
       275    1       10.57200000      12.33400000       8.81000000
       276    1       12.33400000      10.57200000       8.81000000
       277    1       14.09600000      10.57200000       7.04800000
       278    1       15.85800000      12.33400000       7.04800000
       279    1       14.09600000      12.33400000       8.81000000
       280    1       15.85800000      10.57200000       8.81000000
       281    1        0.00000000      14.09600000       7.04800000
       282    1        1.76200000      15.85800000       7.04800000
       283    1        0.00000000      15.85800000       8.81000000
       284    1        1.76200000      14.09600000       8.81000000
       285    1        3.52400000      14.09600000       7.04800000
       286    1        5.28600000      15.85800000       7.04800000
       287    1        3.52400000      15.85800000       8.81000000
       288    1        5.28600000      14.09600000       8.81000000
       289    1        7.04800000      14.09600000       7.04800000
       290    1        8.81000000      15.85800000       7.04800000
       291    1        7.04800000      15.85800000       8.81000000
       292    1        8.81000000      14.09600000       8.81000000
       293    1       10.57200000      14.09600000       7.04800000
       294    1       12.33400000      15.85800000       7.04800000
       295    1       10.57200000      15.85800000       8.81000000
       296    1       12.33400000      14.09600000       8.81000000
       297    1       14.09600000      14.09600000       7.04800000
       298    1       15.85800000      15.85800000       7.04800000
       299    1       14.09600000      15.85800000       8.81000000
       300    1       15.85800000      14.09600000       8.81000000
       301    1        0.00000000       0.00000000      10.57200000
       302    1        1.76200000       1.76200000      10.57200000
       303    1        0.00000000       1.76200000      12.33400000
       304    1        1.76200000       0.00000000      12.33400000
       305    1        3.52400000       0.00000000      10.57200000
       306    1        5.28600000       1.76200000      10.57200000
       307    1        3.52400000       1.76200000      12.33400000
       308    1        5.28600000       0.00000000      12.33400000
       309    1        7.04800000       0.00000000      10.57200000
       310    1        8.81000000       1.76200000      10.57200000
       311    1        7.04800000       1.76200000      12.33400000
       312    1        8.81000000       0.00000000      12.33400000
       313    1       10.57200000       0.00000000      10.57200000
       314    1       12.33400000       1.76200000      10.57200000
       315    1       10.57200000       1.76200000      12.33400000
       316    1       12.33400000       0.00000000      12.33400000
       317    1       14.09600000       0.00000000      10.57200000
       318    1       15.85800000       1.76200000      10.57200000
       319    1       14.09600000       1.76200000      12.33400000
       320    1       15.85800000       0.00000000      12.33400000
       321    1        0.00000000       3.52400000      10.57200000
       322    1        1.76200000       5.28600000      10.57200000
       323    1        0.00000000       5.28600000      12.33400000
       324    1        1.76200000       3.52400000      12.33400000
       325    1        3.52400000       3.52400000      10.57200000
       326    1        5.28600000       5.28600000      10.57200000
       327    1        3.52400000       5.28600000      12.33400000
       328    1        5.28600000       3.52400000      12.33400000
       329    1        7.04800000       3.52400000      10.57200000
       330    1        8.81000000       5.28600000      10.57200000
       331    1        7.04800000       5.28600000      12.33400000
       332    1        8.81000000       3.52400000      12.33400000
       333    1       10.57200000       3.52400000      10.57200000
       334    1       12.33400000       5.28600000      10.57200000
       335    1       10.57200000       5.28600000      12.33400000
       336    1       12.33400000       3.52400000      12.33400000
       337    1       14.09600000       3.52400000      10.57200000
       338    1       15.85800000       5.28600000      10.57200000
       339    1       14.09600000       5.28600000      12.33400000
       340    1       15.85800000       3.52400000      12.33400000
       341    1        0.00000000       7.04800000      10.57200000
       342    1        1.76200000       8.81000000      10.57200000
       343    1        0.00000000       8.81000000      12.33400000
       344    1        1.76200000       7.04800000      12.33400000
       345    1        3.52400000       7.04800000      10.57200000
       346    1        5.28600000       8.81000000      10.57200000
       347    1        3.52400000       8.81000000      12.33400000
       348    1        5.28600000       7.04800000      12.33400000
       349    1        7.04800000       7.04800000      10.57200000
       350    1        8.81000000       8.81000000      10.57200000
       351    1        7.04800000       8.81000000      12.33400000
       352    1        8.81000000       7.04800000      12.33400000
       353    1       10.57200000       7.04800000      10.57200000
       354    1       12.33400000       8.81000000      10.57200000
       355    1       10.57200000       8.81000000      12.33400000
       356    1       12.33400000       7.04800000      12.33400000
       357    1       14.09600000       7.04800000      10.57200000
       358    1       15.85800000       8.81000000      10.57200000
       359    1       14.09600000       8.81000000      12.33400000
       360    1       15.85800000       7.04800000      12.33400000
       361    1        0.00000000      10.57200000      10.57200000
       362    1        1.76200000      12.33400000      10.57200000
       363    1        0.00000000      12.33400000      12.33400000
       364    1        1.76200000      10.57200000      12.33400000
       365    1        3.52400000      10.57200000      10.57200000
       366    1        5.28600000      12.33400000      10.57200000
       367    1        3.52400000      12.33400000      12.33400000
       368    1        5.28600000      10.57200000      12.33400000
       369    1        7.04800000      10.57200000      10.57200000
       370    1        8.81000000      12.33400000      10.57200000
       371    1        7.04800000      12.33400000      12.33400000
       372    1        8.81000000      10.57200000      12.33400000
       373    1       10.57200000      10.57200000      10.57200000
       374    1       12.33400000      12.33400000      10.57200000
       375    1       10.57200000      12.33400000      12.33400000
       376    1       12.33400000      10.57200000      12.33400000
       377    1       14.09600000      10.57200000      10.57200000
       378    1       15.85800000      12.33400000      10.57200000
       379    1       14.09600000      12.33400000      12.33400000
       380    1       15.85800000      10.57200000      12.33400000
       381    1        0.00000000      14.09600000      10.57200000
       382    1        1.76200000      15.85800000      10.57200000
       383    1        0.00000000      15.85800000      12.33400000
       384    1        1.76200000      14.09600000      12.33400000
       385    1        3.52400000      14.09600000      10.57200000
       386    1        5.28600000      15.85800000      10.57200000
       387    1        3.52400000      15.85800000      12.33400000
       388    1        5.28600000      14.09600000      12.33400000
       389    1        7.04800000      14.09600000      10.57200000
       390    1        8.81000000      15.85800000      10.57200000
       391    1        7.04800000      15.85800000      12.33400000
       392    1        8.81000000      14.09600000      12.33400000
       393    1       10.57200000      14.09600000      10.57200000
       394    1       12.33400000      15.85800000      10.57200000
       395    1       10.57200000      15.85800000      12.33400000
       396    1       12.33400000      14.09600000      12.33400000
       397    1       14.09600000      14.09600000      10.57200000
       398    1       15.85800000      15.85800000      10.57200000
       399    1       14.09600000      15.85800000      12.33400000
       400    1       15.85800000      14.09600000      12.33400000
       401    1        0.00000000       0.00000000      14.09600000
       402    1        1.76200000       1.76200000      14.09600000
       403    1        0.00000000       1.76200000      15.85800000
       404    1        1.76200000       0.00000000      15.85800000
       405    1        3.52400000       0.00000000      14.09600000
       406    1        5.28600000       1.76200000      14.09600000
       407    1        3.52400000       1.76200000      15.85800000
       408    1        5.28600000       0.00000000      15.85800000
       409    1        7.04800000       0.00000000      14.09600000
       410    1        8.81000000       1.76200000      14.09600000
       411    1        7.04800000       1.76200000      15.85800000
       412    1        8.81000000       0.00000000      15.85800000
       413    1       10.57200000       0.00000000      14.09600000
       414    1       12.33400000       1.76200000      14.09600000
       415    1       10.57200000       1.76200000      15.85800000
       416    1       12.33400000       0.00000000      15.85800000
       417    1       14.09600000       0.00000000      14.09600000
       418    1       15.85800000       1.76200000      14.09600000
       419    1       14.09600000       1.76200000      15.85800000
       420    1       15.85800000       0.00000000      15.85800000
       421    1        0.00000000       3.52400000      14.09600000
       422    1        1.76200000       5.28600000      14.09600000
       423    1        0.00000000       5.28600000      15.85800000
       424    1        1.76200000       3.52400000      15.85800000
       425    1        3.52400000       3.52400000      14.09600000
       426    1        5.28600000       5.28600000      14.09600000
       427    1        3.52400000       5.28600000      15.85800000
       428    1        5.28600000       3.52400000      15.85800000
       429    1        7.04800000       3.52400000      14.09600000
       430    1        8.81000000       5.28600000      14.09600000
       431    1        7.04800000       5.28600000      15.85800000
       432    1        8.81000000       3.52400000      15.85800000
       433    1       10.57200000       3.52400000      14.09600000
       434    1       12.33400000       5.28600000      14.09600000
       435    1       10.57200000       5.28600000      15.85800000
       436    1       12.33400000       3.52400000      15.85800000
       437    1       14.09600000       3.52400000      14.09600000