ITEM: TIMESTEP
1500
ITEM: NUMBER OF ATOMS
28567
ITEM: BOX BOUNDS pp pp pp
5.7995724745552479e-02 7.0342004275255022e+01
5.6772179239764853e-02 7.0343227820760291e+01
2.6583248223336540e+00 6.7741675177666664e+01
ITEM: ATOMS id xs ys zs c_csym c_peratom fx fy fz 
1601 0.0229521 0.0280467 0.00841687 0.409104 -4.33664 0.432436 -0.299466 -0.217028 
1642 0.046896 0.0540189 0.00717549 1.62932 -4.36499 0.681009 -0.578076 -0.0778493 
1602 0.0472961 0.00030334 0.00768794 0.314319 -4.30285 -0.362466 0.912193 0.0593947 
2402 0.0482864 0.0266387 0.0366361 0.28808 -4.31691 -0.349525 -0.320386 -0.425093 
2441 0.0239474 0.0509275 0.0371025 0.609831 -4.35547 -0.657198 0.0852368 0.359567 
2401 0.0216777 0.000712312 0.0358435 0.27031 -4.36724 0.726146 0.836299 0.101955 
1603 0.072081 0.0244237 0.00847029 0.761007 -4.26985 0.0934787 1.17078 -0.0739716 
1644 0.0991335 0.0506264 0.00870046 0.313212 -4.29686 -0.325493 0.0114053 0.363294 
1604 0.0981282 0.00176223 0.00965549 0.329857 -4.34849 -0.13107 -0.655384 -0.275221 
2404 0.0950654 0.0259479 0.0364621 0.780065 -4.34673 0.35421 0.349282 0.592646 
2443 0.0714746 0.0524482 0.0365476 0.528236 -4.31585 0.324426 -0.35979 -0.0968786 
1605 0.122958 0.0250532 0.0116656 0.406308 -4.33645 -0.0770784 0.572598 -0.604602 
1606 0.146712 0.000552523 0.0132881 0.48878 -4.35331 0.671569 -0.104671 -0.403748 
1607 0.17146 0.027771 0.0124115 0.335309 -4.33244 0.388103 -0.42076 0.652348 
1646 0.146127 0.0523904 0.013725 0.948536 -4.30115 0.538964 -0.962171 -0.351924 
2406 0.147185 0.0261416 0.0394411 0.244168 -4.36779 -0.0559984 0.399838 0.165646 
2445 0.120484 0.0502992 0.0402169 0.411719 -4.34091 0.315595 -0.0969522 -0.00884059 
2447 0.172418 0.0514309 0.0401163 0.626691 -4.34282 -0.50476 0.423077 0.616915 
2405 0.121474 0.00288695 0.040453 0.392111 -4.34328 0.00509008 -0.566558 -0.458232 
808 0.19752 0.0274847 0.987404 0.259886 -4.38177 0.0848243 0.11735 -0.056711 
1609 0.221254 0.0286675 0.0147582 0.175189 -4.32905 -0.312043 0.367335 0.489358 
1648 0.197273 0.0543609 0.0138415 0.569512 -4.37872 -0.256202 -0.698154 -0.152364 
2408 0.196551 0.0282987 0.0427069 0.10391 -4.35167 0.225719 0.129254 -0.58396 
2449 0.221291 0.05369 0.0438011 0.26006 -4.31513 0.0331394 -0.689793 -0.357923 
811 0.270196 0.00217295 0.988705 0.358329 -4.41497 -0.0100425 0.349581 0.113901 
851 0.271062 0.0525404 0.986235 0.515435 -4.34389 0.864784 0.834934 0.797032 
1611 0.2715 0.0292214 0.0153253 0.546816 -4.36332 -0.306843 -0.641542 -0.0593524 
1650 0.245349 0.0527956 0.0147467 0.213074 -4.36813 0.667287 0.191578 0.309067 
2410 0.244858 0.0275674 0.0430406 0.327878 -4.33357 0.0887625 0.902631 0.419996 
2451 0.271664 0.051046 0.0432927 0.222567 -4.36097 -0.490377 0.635027 -0.125759 
2411 0.269375 0.00456801 0.0441118 0.481646 -4.33659 0.443418 -0.915129 0.0319795 
812 0.294746 0.0258313 0.987017 0.813005 -4.33255 0.493846 0.836304 1.05249 
814 0.34652 0.0254182 0.988338 0.172853 -4.4055 0.464619 0.321313 0.219729 
853 0.320025 0.0495316 0.987505 0.817082 -4.30969 0.63773 0.187672 1.34885 
1613 0.320964 0.0246153 0.0172632 0.473039 -4.29649 -0.254502 1.23965 -0.568702 
1614 0.346893 0.00371436 0.0171401 0.808548 -4.30401 0.101667 -1.21419 -0.0352021 
1652 0.296899 0.0519264 0.0157255 0.256051 -4.34302 0.0811535 -0.436738 -0.0927057 
1654 0.345858 0.0495181 0.0176589 0.277551 -4.37367 0.241325 0.0606159 -0.294636 
1612 0.295403 0.00268968 0.0167254 0.130207 -4.34994 -0.441882 -0.152304 0.00164891 
2412 0.295889 0.0260869 0.0438761 0.0939827 -4.35096 0.0799544 0.336505 0.00787315 
2414 0.346046 0.0245303 0.0452741 0.373047 -4.32366 0.335471 0.949847 0.0123392 
2453 0.321459 0.0499786 0.043348 0.28158 -4.34863 -0.0342527 0.39477 0.87863 
815 0.373486 0.00146897 0.988473 0.856241 -4.32164 -0.667969 -0.0164133 -0.400042 
816 0.396081 0.0258085 0.987503 0.38017 -4.21298 -0.405242 0.795431 -0.542016 
855 0.371775 0.0505456 0.989332 0.3011 -4.359 -0.170668 -0.332282 -0.353863 
1615 0.372196 0.0259002 0.0179333 0.190563 -4.3321 -0.201003 -0.122011 0.0447886 
1656 0.3948 0.0501113 0.0175485 0.505457 -4.30081 0.409282 0.583627 -0.26696 
2416 0.397421 0.0268964 0.0464489 0.572204 -4.34204 -0.550408 0.256592 -0.54252 
2455 0.370394 0.0510878 0.0461438 0.341271 -4.32703 0.0514345 -0.182681 -0.634734 
857 0.420018 0.0502023 0.986468 0.426595 -4.32362 -0.201685 0.457788 -0.13309 
1617 0.419739 0.0280229 0.0156162 0.408352 -4.32866 0.492859 -0.642072 0.478055 
1658 0.444179 0.0526958 0.0147499 0.259262 -4.32158 -0.143673 -0.630383 0.388634 
2418 0.445376 0.0267117 0.0442732 0.135601 -4.38195 -0.0569897 -0.00379379 -0.419831 
2457 0.421664 0.0529476 0.0447407 0.53106 -4.33393 -0.498897 -0.87951 -0.323846 
820 0.493625 0.0263897 0.987637 0.495954 -4.31385 -1.03731 0.0710319 -0.996356 
859 0.467348 0.0513018 0.987841 1.01163 -4.3143 0.346677 -0.179523 -1.28489 
1619 0.469301 0.026823 0.0147869 0.208372 -4.34499 -0.501669 -0.440141 0.474602 
1621 0.516985 0.0266528 0.0149914 0.210212 -4.37983 0.231871 -0.405951 0.201043 
1660 0.493475 0.051719 0.0132553 0.287563 -4.32137 -0.289677 -0.149526 0.601523 
2420 0.493313 0.0265382 0.0445343 0.634977 -4.33557 -0.382377 -0.174819 -0.569092 
2459 0.471046 0.0521836 0.0413068 0.537408 -4.3408 -0.795845 -0.126847 0.322829 
2461 0.518038 0.0494065 0.0422157 0.537659 -4.36434 0.329482 0.849001 0.0859048 
1623 0.567111 0.0237469 0.0138421 0.396989 -4.35648 -0.412721 0.415921 0.254098 
1662 0.542323 0.0505825 0.0139532 0.374373 -4.35327 0.788977 -0.695322 -0.133181 
2422 0.543465 0.0246416 0.0429471 0.342873 -4.33374 -0.411991 0.184146 -0.100859 
2463 0.566335 0.0482707 0.0420311 0.529622 -4.30161 0.358562 0.718915 0.497765 
824 0.592487 0.0236564 0.987805 0.463512 -4.42101 0.343415 0.11157 -0.141082 
1625 0.61557 0.0249307 0.0174324 0.305648 -4.34967 -0.0768273 -0.493885 -0.149088 
1664 0.590433 0.0493904 0.0161059 0.302167 -4.30825 0.417184 -0.699353 -0.0641205 
1624 0.590847 0.999182 0.0151135 0.26022 -4.361 0.76098 -0.348809 0.34006 
2424 0.590813 0.0240712 0.0432261 0.198007 -4.36061 0.0433942 0.194434 0.295298 
2465 0.615393 0.0486485 0.0451246 0.28983 -4.36634 0.084401 0.289606 -0.418339 
2425 0.616003 0.999795 0.0432391 0.297961 -4.36201 -0.0695709 -0.380953 0.0763927 
1626 0.641418 0.999908 0.0179978 0.218216 -4.34307 0.233553 -0.23356 -0.148645 
1627 0.665913 0.02377 0.0168581 0.180669 -4.32266 0.530588 0.174533 0.644974 
1628 0.693407 0.00158244 0.0167172 0.374682 -4.31367 0.00611529 -0.595234 0.735503 
1666 0.641346 0.0474351 0.0169099 0.432188 -4.31156 -0.321175 0.700938 0.914771 
1668 0.691409 0.0487831 0.0168299 0.416924 -4.36531 -0.0827058 -0.280823 0.457616 
2426 0.640995 0.0242094 0.0447038 0.075731 -4.36932 0.356685 0.0686666 -0.00327557 
2428 0.692683 0.0234061 0.0452604 0.436608 -4.32369 -0.170982 0.801132 -0.393894 
2467 0.66623 0.0491178 0.0450892 0.138721 -4.37736 0.256667 -0.671412 -0.238062 
2427 0.667459 0.000275212 0.0436084 0.147134 -4.34643 0.11476 -0.268056 0.425217 
1629 0.718509 0.026361 0.0153041 1.05673 -4.28618 -0.593571 -0.987117 0.919366 
1670 0.741049 0.0490234 0.0194604 1.1135 -4.28118 0.658112 1.03754 -1.27388 
2430 0.744347 0.0248062 0.0431919 0.422347 -4.32203 -0.651464 0.258649 0.439602 
2469 0.715099 0.0499342 0.0447049 0.647758 -4.32909 0.454911 -0.386192 0.248037 
1631 0.770129 0.0265669 0.0165344 0.331096 -4.36685 -0.806888 -0.185164 0.159217 
1672 0.793547 0.0515751 0.0163561 0.237227 -4.34343 0.69023 -0.180124 0.21963 
2432 0.793568 0.0270876 0.0426731 0.236165 -4.37935 0.589002 -0.145613 0.448408 
2471 0.767719 0.0518638 0.0435445 0.513249 -4.36255 0.239966 -0.677542 0.259332 
1633 0.819179 0.0274178 0.0166736 0.132864 -4.38676 0.375926 0.101187 -0.309507 
1635 0.869922 0.0272177 0.015482 0.144557 -4.32895 0.329924 0.0409564 0.139814 
1674 0.845843 0.0516987 0.0165688 0.300585 -4.37707 -0.237594 0.410968 0.0651136 
2434 0.844615 0.0280321 0.044493 0.410885 -4.3382 0.133292 -0.329265 -0.263326 
2473 0.818926 0.0515023 0.0439114 0.211648 -4.32348 0.694578 0.00320957 -0.202371 
2475 0.871282 0.0518563 0.0432385 0.160548 -4.35248 -0.466696 -0.0625337 -0.352782 
1637 0.920581 0.0262648 0.0155994 0.583075 -4.31422 0.988379 0.091795 -0.81913 
1676 0.895939 0.0510166 0.0152158 0.159708 -4.34803 -0.27231 0.322564 -0.343192 
1636 0.896985 0.00256819 0.0166163 0.714092 -4.33292 -0.670595 -0.132738 -0.873139 
2436 0.896354 0.0275336 0.0419546 0.127653 -4.33318 -0.21 -0.220601 0.591393 
2477 0.922158 0.0505505 0.040494 0.388491 -4.32979 -0.234573 0.570822 0.683887 
1600 0.996897 0.00309864 0.00844758 0.513161 -4.32145 0.31138 -1.04943 -0.165718 
1640 0.996106 0.0532297 0.0112568 0.311586 -4.34881 0.622803 -0.136453 0.185715 
1639 0.971432 0.0279834 0.0103893 0.482564 -4.27163 0.293942 -0.727302 0.347804 
1678 0.947281 0.051529 0.014547 0.195461 -4.39506 -0.0787785 -0.138768 -0.172287 
2400 0.996269 0.0260459 0.0340934 1.38186 -4.32674 0.921005 0.455889 1.53965 
2438 0.949206 0.025485 0.0405756 0.677261 -4.33549 -0.601723 -0.100937 -0.353209 
2479 0.972788 0.0511656 0.0394951 0.279479 -4.32413 -0.249144 -0.290984 -0.0383048 
1641 0.0205156 0.0776916 0.0134228 0.552982 -4.34859 0.373446 0.0310281 -0.150118 
1682 0.047527 0.103557 0.0162811 0.527919 -4.30159 0.0498028 0.126477 -0.2094 
1680 0.996527 0.101605 0.0151098 0.258906 -4.36871 -0.0525445 -0.0912686 0.228563 
2442 0.0469415 0.0766316 0.038163 0.492172 -4.334 0.913587 -0.275819 0.2843 
2481 0.02378 0.100774 0.0415899 0.459133 -4.32604 -0.852834 0.40221 -0.0181064 
1643 0.0729187 0.0785896 0.00912242 1.46709 -4.34179 0.392953 -0.688056 -0.22965 
1684 0.0990086 0.101396 0.0119514 1.2596 -4.33356 0.119992 -0.0273979 0.287129 
2444 0.0966018 0.0750721 0.039559 0.294849 -4.30568 0.407662 0.524037 0.00241851 
2483 0.0733499 0.10121 0.0405327 0.456674 -4.38911 0.0893499 -0.12517 0.148307 
1645 0.123378 0.0749816 0.0126242 0.229211 -4.26124 -0.616039 0.690823 -0.231891 
1647 0.17043 0.0770769 0.01323 0.590088 -4.3624 0.438589 -0.338765 0.439104 
1686 0.145892 0.100723 0.0158179 0.78291 -4.32257 0.37121 -0.0894903 -0.410051 
2446 0.145673 0.0745412 0.0426145 0.374416 -4.35283 0.111226 0.353436 0.0569537 
2485 0.122226 0.100438 0.0425706 0.14085 -4.35126 -0.285232 0.150905 -0.103998 
2487 0.17102 0.0987277 0.0427076 0.542685 -4.31331 -0.181584 0.668387 0.623436 
889 0.221166 0.102388 0.986612 0.25 -4.36463 0.453296 -0.059403 0.428338 
1649 0.221049 0.0780834 0.0144986 0.365387 -4.3155 0.46066 -0.0648494 0.0849967 
1688 0.195984 0.100007 0.0178991 0.974544 -4.28098 0.303215 0.434099 -1.00336 
2448 0.196887 0.0750511 0.044089 0.674852 -4.2952 -0.249087 0.936541 -0.10473 
2489 0.22268 0.100428 0.0439017 0.249267 -4.36794 -0.436941 0.483849 0.219896 
850 0.247288 0.0769618 0.987209 0.29451 -4.33749 0.119019 0.946775 -0.121352 
891 0.273511 0.101943 0.985963 0.554125 -4.30356 -0.242617 -0.75981 0.0538998 
1651 0.273162 0.0778551 0.0163641 0.462452 -4.3467 -0.683906 -0.652695 -0.288797 
1690 0.247623 0.101189 0.0160109 0.159542 -4.3394 -0.151748 0.286417 -0.319892 
2450 0.245943 0.0762727 0.042415 0.46173 -4.32507 0.817997 0.136018 0.465192 
2491 0.271529 0.101448 0.0446244 0.301288 -4.33123 0.0242001 -0.360242 -0.130556 
852 0.298274 0.0769822 0.989715 0.930698 -4.33082 -0.423497 0.246617 -0.697464 
854 0.344627 0.0731787 0.990177 1.27723 -4.38027 0.435147 0.599157 -0.46616 
893 0.32218 0.103193 0.989513 1.53439 -4.35719 -0.346454 -0.821583 -0.336614 
1653 0.322039 0.076706 0.0181098 0.516013 -4.32394 0.0629395 -0.278928 -0.661642 
1692 0.297425 0.101765 0.0188165 0.786639 -4.34375 0.0347432 -0.0513209 -0.819861 
1694 0.347012 0.101743 0.01513 0.330399 -4.34688 -0.0686403 0.160036 0.170984 
2452 0.29712 0.0753777 0.0436022 0.252598 -4.35789 -0.0209642 0.19453 0.489186 
2454 0.346775 0.0759425 0.0450167 0.230736 -4.35717 -0.312702 0.14074 -0.310927 
2493 0.32266 0.100968 0.0443447 0.345568 -4.32823 -0.325005 0.262262 -0.17905 
856 0.396823 0.0762443 0.987849 0.833295 -4.35912 -0.768216 -0.461746 0.0482822 
895 0.370219 0.101527 0.986886 0.531947 -4.35955 0.185033 -0.835845 0.474473 
1655 0.370898 0.0762104 0.0165292 0.19547 -4.38636 0.235552 0.00976267 -0.114396 
1696 0.396354 0.102837 0.0150258 0.543604 -4.30695 -0.459726 -0.770853 -0.0224864 
2456 0.394954 0.0745191 0.0449214 1.04937 -4.32682 -0.0767908 1.27799 -0.439243 
2495 0.370961 0.103195 0.0428303 0.599513 -4.36923 0.144705 -0.668396 0.286758 
858 0.442577 0.0770056 0.986915 0.688762 -4.38931 -0.105929 -0.530465 -0.685536 
897 0.418655 0.101432 0.985212 0.322464 -4.33817 0.172743 -0.0608295 0.378567 
1657 0.417926 0.0763392 0.0162269 0.857392 -4.34494 0.793651 -0.109336 -0.3337 
1698 0.444929 0.10201 0.0144732 0.407703 -4.37465 -0.296435 -0.623281 -0.698344 
2458 0.445444 0.076588 0.0412211 0.299324 -4.34136 0.213745 0.229423 0.198234 
2497 0.420743 0.100635 0.0425295 0.221306 -4.34338 0.186004 0.30051 -0.0173838 
899 0.467923 0.0999682 0.982878 0.1474 -4.39324 0.383458 -0.00351123 0.0169981 
901 0.516805 0.100235 0.983143 0.652887 -4.30419 0.46153 -0.550086 0.190711 
1659 0.468189 0.0767619 0.0126367 0.267537 -4.31808 0.513808 -0.0419573 0.384716 
1661 0.518688 0.0735931 0.0129862 0.460882 -4.26694 -0.353387 1.20599 -0.414627 
1700 0.492564 0.100352 0.0114407 0.278185 -4.36593 0.82706 0.24132 0.131221 
2460 0.495286 0.0766898 0.0404506 0.480217 -4.33487 -0.357439 -0.295919 0.138317 
2499 0.471107 0.100522 0.041723 0.380385 -4.33472 -0.333149 0.222486 -0.483756 
2501 0.5188 0.100473 0.0398822 0.18793 -4.31207 -0.0624035 -0.189165 -0.105176 
862 0.543986 0.0731467 0.983377 0.680894 -4.34721 -0.0111153 0.422862 0.837593 
903 0.570081 0.0987983 0.984544 0.651482 -4.32553 -1.05921 -0.529317 0.565833 
1663 0.568855 0.0746416 0.0142151 0.581408 -4.32168 -1.27667 0.0467092 -0.461666 
1702 0.541649 0.0991494 0.011619 0.453632 -4.35004 0.684314 -0.148418 -0.584577 
2462 0.542718 0.0747908 0.0410722 0.126383 -4.39136 -0.131824 0.163402 0.280944 
2503 0.565622 0.100942 0.0408118 0.365901 -4.31275 0.292785 -0.280119 0.310775 
864 0.593331 0.0724241 0.987991 0.298911 -4.35796 -0.659031 0.431798 -0.54059 
905 0.616864 0.0972439 0.989309 0.453088 -4.35923 -0.0780814 -0.201567 -0.0171147 
1665 0.613853 0.0739425 0.0172214 0.791748 -4.36532 0.890893 0.0671824 0.472481 
1704 0.590538 0.100559 0.016086 0.613246 -4.32159 0.546242 -0.346443 -0.276179 
2464 0.5896 0.0747687 0.042704 0.349042 -4.32685 0.557455 0.0293869 0.533107 
2505 0.616373 0.100211 0.0443714 0.386593 -4.35764 -0.483508 -0.111381 -0.287819 
1667 0.667828 0.0739847 0.0182973 0.978356 -4.28552 -1.27544 -0.877586 -0.401799 
1706 0.641674 0.0973257 0.0195684 0.904662 -4.29391 -0.439978 0.457467 -0.919539 
1708 0.689964 0.0978861 0.0176891 0.26873 -4.31717 0.379449 0.585945 -0.224915 
2466 0.640264 0.0729619 0.0434399 0.480477 -4.35084 0.195178 -0.15471 0.509085 
2468 0.689738 0.0739434 0.0457949 0.360334 -4.32964 0.912503 -0.203036 0.0613428 
2507 0.665683 0.0976918 0.0443359 0.261881 -4.28639 -0.127592 0.587013 0.684382 
1669 0.71565 0.0756803 0.0207794 1.37262 -4.3109 -0.203624 -0.741892 -1.4317 
1710 0.740954 0.0992281 0.0188825 0.383233 -4.29152 -0.208516 -0.397624 -0.405683 
2470 0.741069 0.074101 0.0445173 0.289862 -4.33219 0.340027 0.370554 0.428018 
2509 0.716139 0.0999761 0.0452789 0.352067 -4.3078 -0.306382 -0.776228 0.61369 
1671 0.767146 0.0734965 0.0165266 0.428614 -4.28828 -0.502994 0.210053 0.369693 
1712 0.791953 0.0977613 0.0177416 0.553775 -4.35658 0.429094 0.690861 -0.109951 
2472 0.793343 0.0740981 0.0441587 0.332462 -4.32144 0.328733 0.62497 -0.129164 
2511 0.766848 0.0967925 0.0438437 0.585703 -4.38148 0.0593146 0.633969 0.320622 
1673 0.820849 0.0764814 0.0179786 0.389774 -4.38718 -0.115951 -0.0592979 -0.516462 
1675 0.870837 0.0785541 0.0167117 0.288024 -4.33392 0.386935 -1.06853 -0.0770149 
1714 0.84686 0.103326 0.0176581 0.596847 -4.33418 -0.56413 -0.2001 -0.399889 
2474 0.846379 0.078607 0.0434971 0.326907 -4.36863 -0.123844 -0.821572 0.0746361 
2513 0.82027 0.101286 0.042598 0.495001 -4.3094 -0.861218 -0.29399 0.459884 
2515 0.87172 0.103314 0.0435992 0.39312 -4.38142 -0.0981642 -0.135209 -0.201682 
1677 0.922958 0.0759903 0.0159996 0.337214 -4.33042 -0.741333 -0.155557 -0.514796 
1716 0.897371 0.101876 0.0170497 0.290769 -4.34193 -0.468865 -0.3032 -1.0202 
2476 0.89561 0.0759059 0.041717 0.418562 -4.35891 0.844913 0.298025 0.149468 
2517 0.921847 0.100976 0.0413645 0.145682 -4.3502 0.281898 -0.0712557 0.483896 
1679 0.971695 0.0776307 0.015385 0.522459 -4.36382 0.190861 -0.496085 -0.69397 
1718 0.947081 0.0998732 0.0137342 0.458748 -4.3381 0.0228102 1.01566 0.421797 
2440 0.996105 0.0750191 0.0416826 0.75544 -4.30986 1.07538 0.644162 -0.4214 
2478 0.946787 0.076556 0.0422621 0.321967 -4.32743 -0.116501 0.0836988 -0.394858 
2519 0.971757 0.100484 0.0432848 0.477072 -4.35009 -0.192564 0.495084 -0.453111 
1681 0.0217187 0.127241 0.0169283 0.379099 -4.32009 0.1855 -0.131999 -0.00554335 
1721 0.0207738 0.174944 0.0149172 0.304891 -4.34165 0.299644 0.540316 -0.0433115 
1722 0.0452132 0.152561 0.0183983 0.761975 -4.31071 0.609975 -0.427028 -0.989982 
2482 0.048425 0.126963 0.0445254 0.441804 -4.33858 -0.525804 -0.366067 -0.481352 
2521 0.0224327 0.150718 0.0438776 0.311088 -4.31913 -0.797724 0.193244 0.229705 
2522 0.0459328 0.177035 0.0438372 0.193805 -4.35287 -0.180433 0.610729 0.00795278 
2520 0.997334 0.175541 0.0418896 0.215851 -4.33603 -0.252474 0.304337 0.439867 
1683 0.0721548 0.129961 0.0180216 1.01134 -4.29852 0.0462404 -0.68794 -0.414527 
1723 0.0705907 0.177259 0.0174073 0.427259 -4.35174 0.0825126 -0.293321 0.074498 
1724 0.0981272 0.15324 0.0167528 0.198992 -4.31262 -0.322702 0.045977 0.636006 
2484 0.0983434 0.126329 0.0423142 0.395369 -4.38824 -0.139853 -0.182663 -0.345334 
2523 0.0717951 0.152525 0.0442141 0.184753 -4.31899 0.345514 0.152516 -0.27886 
2524 0.0976501 0.178071 0.04299 0.203082 -4.3539 -0.113311 -0.827233 0.326884 
1685 0.124233 0.127776 0.0144952 0.59414 -4.35877 0.165467 -0.478693 0.354503 
1687 0.171201 0.124313 0.0152415 0.517056 -4.33471 0.270101 0.304947 0.435963 
1725 0.123398 0.176865 0.0162147 0.175928 -4.34299 0.421296 -0.093278 0.281232 
1726 0.150231 0.151966 0.0177673 0.836607 -4.35231 -0.653793 -0.295896 -0.74893 
1727 0.173649 0.177174 0.0176018 0.343392 -4.30559 -0.117342 -0.106059 -0.397382 
2486 0.147638 0.125354 0.0439017 0.253989 -4.38967 0.261823 -0.0591401 0.0297063 
2525 0.12312 0.150931 0.0422139 0.259912 -4.35665 0.0245417 0.615719 0.0902673 
2527 0.172419 0.151593 0.0445205 0.219508 -4.321 0.0712357 -0.347374 0.17504 
2526 0.147861 0.176674 0.0440533 0.166016 -4.34811 0.236973 0.140318 -0.223766 
1689 0.222193 0.126513 0.0174375 0.210158 -4.36147 -0.331868 -0.483923 -0.10994 
1728 0.195834 0.150992 0.0169503 0.424552 -4.34732 0.530696 -0.78327 0.27593 
1729 0.221347 0.174265 0.0180212 0.6027 -4.37804 0.341697 0.27288 -0.833847 
2488 0.195033 0.124691 0.0442985 0.62375 -4.31827 0.977483 0.311292 -0.124546 
2528 0.198709 0.175728 0.0435381 0.444466 -4.31285 -0.870188 0.0607709 0.616185 
2529 0.223118 0.150392 0.0459013 0.513046 -4.33659 -0.790024 -0.369621 -0.407538 
931 0.271432 0.149811 0.988161 0.35063 -4.3625 0.08072 0.333088 -0.0334436 
1691 0.27322 0.125521 0.0151529 0.535201 -4.33264 -0.712309 0.224916 0.73031 
1730 0.246553 0.150999 0.0175588 0.193141 -4.34447 0.32489 -0.311077 -0.282738 
1731 0.269117 0.177207 0.0155896 0.68802 -4.3203 0.503875 -0.559405 -0.0843128 
2490 0.248482 0.126353 0.0450623 0.303885 -4.34295 -0.204003 -0.369597 -0.752859 
2530 0.245856 0.176711 0.0458269 0.629118 -4.38288 0.313467 0.218398 -0.871516 
2531 0.271384 0.152889 0.0434977 0.506595 -4.33793 0.197508 -0.687714 -0.328618 
892 0.296039 0.125464 0.987358 0.643728 -4.31539 0.92592 0.396329 -0.360602 
932 0.295755 0.174893 0.9909 1.02556 -4.39958 -0.0999315 0.219822 -0.954395 
1693 0.321231 0.126881 0.0169477 0.474423 -4.3076 0.51914 -0.155443 -0.238536 
1732 0.297761 0.149989 0.016645 0.893564 -4.30228 -0.623283 0.726742 -0.260217 
1733 0.321831 0.177518 0.0139677 0.337367 -4.35607 -0.116984 -0.472087 0.119795 
1734 0.347078 0.15228 0.0152784 0.33181 -4.34536 0.0759536 -0.682734 -0.510112 
2492 0.295323 0.126446 0.0442861 0.587393 -4.31245 0.853595 0.335173 -0.0107864 
2494 0.345924 0.126814 0.0430712 0.324276 -4.30673 0.432976 -0.00508501 0.0450033 
2532 0.295449 0.17708 0.0411512 0.386462 -4.37925 0.560293 -0.202269 0.475089 
2533 0.323747 0.154412 0.0421796 1.4303 -4.26575 -1.38044 -1.22524 0.469573 
2534 0.346056 0.177347 0.0405751 0.249 -4.25915 0.305092 0.148262 0.943442 
935 0.370314 0.152311 0.984382 0.372716 -4.29812 0.658858 -0.360466 0.11792 
936 0.394388 0.175529 0.98282 0.24496 -4.23854 0.0188599 -0.0210971 0.427755 
1695 0.373466 0.127303 0.014313 0.818675 -4.28192 -1.2587 0.092563 0.192218 
1735 0.369751 0.177432 0.0141979 0.495463 -4.31126 1.17294 -0.722996 0.0057981 
1736 0.396699 0.151502 0.0147493 0.362061 -4.30612 -0.680961 0.0467358 -0.126419 
2496 0.397954 0.125709 0.0433599 0.43976 -4.32284 -0.697373 0.79628 0.028722 
2535 0.370816 0.150992 0.0436192 0.438233 -4.36778 0.42004 -0.0139287 -0.512554 
2536 0.396355 0.175732 0.0434728 0.47148 -4.32833 0.266117 0.331999 -0.795086 
898 0.443495 0.124734 0.983172 0.224669 -4.38839 -0.0989735 0.373186 0.126615 
937 0.417804 0.150242 0.984273 0.501763 -4.33594 0.429035 -0.36401 -0.323857 
1697 0.421108 0.126279 0.0148854 0.444545 -4.3028 -0.882163 -0.259271 -0.757483 
1737 0.420109 0.175482 0.0145994 0.513814 -4.3231 0.233545 0.520649 -0.819562 
1738 0.444368 0.14869 0.0116311 0.513341 -4.31431 0.145994 1.37115 -0.239697 
2498 0.446824 0.126005 0.0394783 0.467818 -4.32332 -0.225622 -0.17745 1.18212 
2537 0.422734 0.151152 0.0417689 0.297189 -4.35885 -0.468999 0.0951427 0.301741 
2538 0.446602 0.176766 0.0405845 0.333826 -4.33478 -0.298103 -0.202167 -0.278974 
939 0.468004 0.149423 0.98277 0.14778 -4.39058 0.321559 -0.0446078 -0.140019 
940 0.494977 0.174203 0.981788 0.184428 -4.39728 0.105051 -0.274048 0.151852 
941 0.51951 0.150339 0.980522 0.498657 -4.35771 0.0608796 -0.578113 0.0871005 
1699 0.469264 0.125661 0.010729 0.187215 -4.32675 0.281432 -0.478071 0.184153 
1701 0.518854 0.126017 0.00922927 0.469398 -4.34453 -0.0273004 -0.306104 0.598156 
1740 0.493975 0.148526 0.00957359 0.505642 -4.32127 0.211997 0.961496 0.238876 
1741 0.520401 0.174457 0.0103209 0.136846 -4.33233 -0.0656183 -0.502867 -0.388746 
2500 0.495253 0.125061 0.0406638 0.288485 -4.36417 -0.192873 0.514537 -0.556228 
2539 0.469472 0.151192 0.0379387 0.510388 -4.3401 0.650418 -0.0436791 0.526651 
2540 0.496014 0.175116 0.0371646 0.408493 -4.26275 -0.939971 -0.301966 0.547914 
2541 0.519966 0.151052 0.0383234 0.321672 -4.35033 -0.0247481 -0.559438 0.0974432 
902 0.543159 0.124662 0.982581 0.368859 -4.38215 0.413005 -0.499592 -0.162502 
943 0.569339 0.147904 0.981268 0.754601 -4.35428 0.319122 0.511361 0.21111 
1703 0.566101 0.12505 0.0122002 0.426923 -4.31466 0.401363 -0.418256 0.110781 
1742 0.54551 0.150398 0.0094023 0.587132 -4.30487 -0.747818 0.0374054 0.502722 
1743 0.570303 0.174691 0.0100905 0.763212 -4.31262 -0.618416 -0.334904 0.575624 
2502 0.542145 0.123931 0.0389072 0.532878 -4.28614 0.129243 1.11734 0.209419 
2542 0.544748 0.175619 0.039273 0.273381 -4.31806 -0.183747 0.0218783 -0.0381123 
2543 0.566917 0.151175 0.0403717 0.317108 -4.31147 -0.108241 -0.538563 0.282595 
904 0.591808 0.123248 0.98763 0.549743 -4.21159 -0.120135 0.0423863 0.010465 
1705 0.615529 0.123849 0.0160776 0.254594 -4.35609 0.268833 -0.174886 0.112908 
1744 0.591487 0.148316 0.0150552 0.466803 -4.32601 -0.10237 0.56392 -0.133715 
1745 0.617053 0.1735 0.0151499 0.236476 -4.36435 -0.47873 -0.355866 0.76032 
2504 0.591042 0.125676 0.0429379 0.198854 -4.3371 -0.566406 -0.708576 0.0441968 
2544 0.59191 0.174888 0.0433927 0.366618 -4.37913 -0.19817 -0.172648 -0.351586 
2545 0.615809 0.147931 0.0441348 0.463008 -4.32095 0.255886 1.14577 -0.478715 
1707 0.666592 0.122634 0.0172328 0.417891 -4.33845 -0.282625 -0.130277 0.0290305 
1746 0.642128 0.148171 0.0150132 0.686626 -4.3745 -0.446686 0.294754 0.403531 
1747 0.666018 0.173873 0.0172023 0.205727 -4.37861 0.147194 -0.217397 -0.665262 
1748 0.689138 0.148117 0.0176372 0.568188 -4.32816 0.419383 -0.205609 -0.153305 
2506 0.641062 0.126131 0.0424279 1.12796 -4.36573 0.319181 -0.84065 0.622729 
2508 0.689965 0.122305 0.0452533 0.379721 -4.35613 -0.0448666 0.734936 0.188786 
2546 0.641148 0.173218 0.04462 0.253705 -4.37753 -0.414164 0.0623007 -0.679069 
2547 0.666804 0.150003 0.0447746 0.435754 -4.35236 -0.286218 -0.624903 0.106206 
2548 0.691635 0.173736 0.045036 0.361771 -4.32149 -0.511466 -0.0805227 0.0511753 
1709 0.715601 0.122391 0.0189185 0.340907 -4.37881 -0.490266 0.122181 -0.719991 
1749 0.713323 0.171656 0.0175164 0.925861 -4.28089 0.86073 1.18592 -0.339264 
1750 0.741059 0.146422 0.0198027 0.852866 -4.3148 0.014101 0.550552 -0.764905 
2510 0.741893 0.121904 0.0456546 0.606637 -4.31415 -0.0127804 0.787839 0.0431993 
2549 0.715523 0.148255 0.0429882 0.56009 -4.36343 -0.134514 -0.488357 1.15752 
2550 0.740275 0.173326 0.0438246 0.216433 -4.36249 0.0864787 0.0443307 -0.0314288 
1711 0.766195 0.12391 0.0183639 0.223017 -4.34743 0.293403 -0.157716 0.180691 
1751 0.764984 0.172921 0.0178843 0.157648 -4.32522 -0.13768 0.090309 -0.507848 
1752 0.791884 0.149114 0.0172686 0.16617 -4.33872 0.102227 0.00921935 0.379947 
1713 0.817344 0.12333 0.0146136 1.40475 -4.26517 0.323771 1.03862 1.56842 
2512 0.792385 0.123111 0.0443223 0.470842 -4.33431 0.185872 0.192975 -0.933767 
2551 0.767311 0.150382 0.0434582 0.859953 -4.25941 -0.235529 -1.3351 0.25678 
2552 0.792175 0.17345 0.0451199 0.568434 -4.33589 0.321788 0.118369 -0.982063 
1715 0.872598 0.128009 0.0156371 0.539757 -4.30875 -0.341183 -0.270734 -0.398667 
1753 0.818692 0.173974 0.0162305 0.359135 -4.32461 -0.803585 0.196064 0.215299 
1754 0.845036 0.149746 0.0162153 0.364635 -4.33035 -0.357573 0.0876152 0.188689 
1755 0.870713 0.17449 0.0143781 0.276641 -4.34991 -0.000541361 0.400279 0.566857 
2514 0.844143 0.125632 0.0441866 0.473045 -4.28505 0.496209 0.330267 -0.967897 
2553 0.819305 0.149772 0.0420501 0.39971 -4.34753 -0.606672 -0.499438 -0.211876 
2554 0.84431 0.175191 0.0423467 0.182696 -4.36051 -0.287957 -0.342524 -0.123032 
2555 0.870398 0.150105 0.0416 0.180787 -4.35687 0.251889 0.372261 0.685668 
1717 0.921903 0.125548 0.0147337 0.197024 -4.39371 0.254416 0.480562 -0.00196786 
1756 0.897482 0.152504 0.0134208 0.601415 -4.32306 -0.297766 -0.640077 0.442418 
1757 0.921071 0.175669 0.011982 0.359447 -4.31785 0.298273 0.535942 0.335466 
2516 0.897344 0.126738 0.0411522 0.317068 -4.32051 -0.358985 0.257989 0.545599 
2556 0.896661 0.175197 0.0416911 0.218408 -4.35369 -0.119086 0.225376 -0.299515 
2557 0.920993 0.151224 0.0425504 0.30632 -4.32067 0.856338 0.379135 -0.739382 
1720 0.997506 0.150289 0.0147653 0.288688 -4.3312 -0.472902 0.278436 0.397344 
1719 0.971394 0.126307 0.0150298 0.121727 -4.36579 -0.389609 0.164801 0.321964 
1758 0.946031 0.151596 0.0148404 0.330198 -4.34807 0.390892 -0.0281114 0.0706857 
1759 0.973792 0.175416 0.015037 0.844573 -4.31706 -0.693643 0.4546 -0.864112 
2480 0.997079 0.12468 0.0416932 0.420749 -4.31611 -0.372272 0.943151 0.267757 
2518 0.946271 0.125491 0.0423754 0.153925 -4.35024 0.461031 0.590978 -0.321776 
2558 0.94579 0.177544 0.0399501 0.537737 -4.3213 0.23871 -0.607299 0.716933 
2559 0.97133 0.152604 0.0420003 0.419586 -4.31642 -0.139128 -0.899053 0.316348 
1761 0.0218896 0.226864 0.0131112 0.299994 -4.32314 -0.0259231 -0.0471621 0.147765 
1762 0.0455462 0.201799 0.0151432 0.415208 -4.34888 0.204984 -0.802263 0.0332594 
2561 0.0193662 0.201589 0.0412278 0.533664 -4.31502 1.16932 0.00606126 0.745723 
2562 0.0458741 0.226843 0.040295 0.257253 -4.32178 0.207989 -0.350809 0.626971 
2560 0.995782 0.224898 0.0394166 0.489344 -4.3082 0.24395 1.08738 0.583855 
964 0.0976372 0.225835 0.98769 0.168315 -4.38668 0.0865044 -0.216731 0.129247 
1763 0.0727666 0.226405 0.0122031 0.858616 -4.37421 -0.140366 -0.326175 0.981826 
1764 0.0979023 0.200603 0.0168536 0.453142 -4.30722 -0.613283 0.670299 -0.941554 
2563 0.0720236 0.203061 0.0427463 0.308532 -4.33848 -0.474691 -0.36808 -0.270649 
2564 0.0974688 0.226216 0.0416534 0.142664 -4.35621 -0.0798303 0.457123 -0.196751 
967 0.172604 0.203142 0.987764 0.562379 -4.36875 0.0485298 -1.10374 0.425416 
1765 0.122534 0.226361 0.0152946 0.106906 -4.37936 0.19132 0.26739 -0.364223 
1766 0.149359 0.201561 0.0168092 0.42266 -4.36832 -0.344828 0.357852 -0.331842 
1767 0.172509 0.228744 0.0135455 0.463106 -4.32646 0.430801 -0.743695 0.846396 
2565 0.122466 0.201614 0.0413055 0.331795 -4.31683 0.474519 0.1944 0.976046 
2566 0.147304 0.22709 0.0422039 0.241503 -4.36876 0.360824 -0.126101 0.131896 
2567 0.174712 0.202006 0.042707 0.664006 -4.32618 -0.703192 0.178805 0.429588 
968 0.197231 0.226809 0.986992 0.366849 -4.37318 0.143675 0.017077 -0.0544263 
969 0.220869 0.200517 0.990588 0.739993 -4.3585 0.469218 0.255971 -0.88499 
1768 0.197238 0.201779 0.0143607 0.322868 -4.32518 -0.231432 0.11831 0.563585 
1769 0.22148 0.22877 0.0144089 0.69672 -4.35671 0.0288445 -0.61501 0.14398 
2568 0.196464 0.22747 0.0423471 0.247887 -4.33526 0.245063 0.194438 -0.100933 
2569 0.220562 0.201146 0.0423042 0.410273 -4.37483 0.374098 0.680454 0.276606 
970 0.246565 0.227323 0.986568 0.640574 -4.37102 0.0391397 -0.320866 -0.306349 
971 0.269823 0.201042 0.987874 0.243507 -4.36484 0.00273008 -0.766941 0.264515 
1770 0.244547 0.201444 0.0156778 0.29897 -4.35014 0.509299 0.111773 0.0303959 
1771 0.2704 0.226601 0.0123271 0.427954 -4.33286 -0.0954963 0.451001 0.999324 
2570 0.247285 0.227498 0.0420856 0.24751 -4.36921 -0.280465 0.0749105 -0.445809 
2571 0.271066 0.202002 0.0416082 0.118417 -4.37848 -0.13307 0.0242438 0.393919 
973 0.320409 0.201564 0.988083 0.280158 -4.37806 0.527873 -0.0278587 -0.123744 
974 0.346313 0.226101 0.986159 0.376785 -4.38219 -0.267294 -0.0673316 -0.563637 
1772 0.295365 0.202088 0.0151398 0.214662 -4.36263 -0.0355026 -0.16002 -0.359674 
1773 0.319616 0.22741 0.0136107 0.148348 -4.37817 0.364768 0.0519412 -0.116293 
1774 0.345362 0.201959 0.0156402 0.529397 -4.33267 0.27128 0.517581 -0.914158 