ITEM: TIMESTEP
250
ITEM: NUMBER OF ATOMS
28567
ITEM: BOX BOUNDS pp pp pp
1.9355776580312067e-03 7.0398064422342230e+01
1.1376958607129950e-03 7.0398862304139698e+01
4.5956298600483569e-01 6.9940437013995478e+01
ITEM: ATOMS id xs ys zs c_csym c_peratom fx fy fz 
802 0.0501825 0.0247106 0.01906 0.181525 -4.40743 -0.490533 -0.327408 0.00369213 
841 0.0244838 0.0485394 0.018545 0.228915 -4.39623 0.389663 0.519636 0.0090032 
1601 0.0249241 0.0252037 0.0457326 0.355346 -4.3837 -0.0757259 -0.476949 -0.473223 
1642 0.0495236 0.0498575 0.0433031 0.313806 -4.32738 0.0293477 -0.336373 0.589519 
1600 -0.00106467 0.998827 0.0452773 0.271099 -4.37078 0.400532 0.223871 0.217468 
1602 0.048922 0.999487 0.0431755 0.308758 -4.37137 0.294284 0.0943626 0.327805 
804 0.10054 0.02375 0.0184255 0.301507 -4.39375 -0.334105 0.317805 0.096368 
843 0.074276 0.0491032 0.0211638 0.906344 -4.39028 0.766043 0.129413 -0.91375 
1603 0.07535 0.0232391 0.0446707 0.370503 -4.35649 -0.298608 0.641353 -0.309317 
1644 0.100329 0.0504833 0.0448155 0.227376 -4.36932 -0.0127711 -0.177624 -0.336246 
806 0.151491 0.0253676 0.0182092 0.67122 -4.35089 -1.46284 -0.680064 -0.384292 
807 0.174811 0.997658 0.0174623 0.473635 -4.36431 -0.722005 0.915312 0.521205 
845 0.124783 0.0503388 0.01829 0.131173 -4.42754 -0.0315863 -0.124495 -0.181197 
847 0.174007 0.0498154 0.0184314 0.169813 -4.35559 0.212043 0.242676 -0.529492 
1605 0.124896 0.0251133 0.0437631 0.116003 -4.38686 0.0188653 -0.121754 -0.196839 
1606 0.149218 -0.000410567 0.0435422 0.127837 -4.34641 0.648027 -0.0729429 -0.282012 
1607 0.174831 0.0246007 0.0421243 0.422005 -4.34362 0.0832236 -0.318407 0.835866 
1646 0.149663 0.0497277 0.0441719 0.134305 -4.38532 0.249712 0.149324 0.034331 
805 0.125792 -0.000941852 0.0186901 0.373896 -4.39193 -0.637971 0.196242 -0.574821 
808 0.199347 0.024338 0.018537 0.170223 -4.42382 0.474109 -0.302684 -0.237623 
849 0.224584 0.0489824 0.0188092 0.219401 -4.39588 0.0196331 -0.0113983 -0.345957 
1609 0.223514 0.0242963 0.0442532 0.271048 -4.33381 0.0422896 0.0382203 -0.414136 
1648 0.197883 0.0510472 0.0424467 0.941663 -4.28098 1.05632 -1.27004 0.992984 
810 0.24939 0.0237009 0.0175815 0.521625 -4.39351 0.0868544 0.708828 0.246571 
811 0.2747 0.999726 0.0166354 0.388676 -4.41247 0.374707 -0.380294 0.599313 
851 0.276683 0.0496506 0.0191789 0.705874 -4.35743 -1.07799 -0.0819628 -0.334664 
1611 0.274976 0.0255773 0.0436386 0.394803 -4.33353 -0.133014 -1.0915 -0.0579013 
1650 0.248721 0.0487535 0.0432908 0.234772 -4.36502 0.447834 0.127591 -0.126664 
1610 0.250639 1.00006 0.0434426 0.323164 -4.34488 0.304724 -0.103145 0.573999 
812 0.300755 0.0236983 0.0195083 0.535979 -4.38455 -0.195841 0.279296 -0.693625 
813 0.323959 -0.000966804 0.0169782 0.470779 -4.3853 0.746527 0.320048 0.390665 
814 0.350413 0.0257433 0.0185544 0.268104 -4.3904 -0.47171 -0.320722 -0.83409 
853 0.324405 0.0498381 0.018247 0.12716 -4.43038 -0.179301 -0.0560923 0.16733 
1613 0.326349 0.024603 0.0436581 0.39175 -4.34877 -0.819185 -0.376053 0.292284 
1614 0.349544 0.000260143 0.0439416 0.241009 -4.33949 0.107217 -0.372731 0.0290336 
1652 0.300175 0.048465 0.0451185 0.282039 -4.37571 0.278638 0.486791 -0.0390002 
1654 0.348475 0.049664 0.0440411 0.283228 -4.34818 0.535827 0.274112 0.200567 
815 0.373779 0.000440945 0.0197582 0.484314 -4.40552 0.456386 0.039562 -0.61188 
816 0.399139 0.0258889 0.0178839 0.195224 -4.40835 0.0121676 0.0628259 0.667706 
855 0.374459 0.0515452 0.0186378 0.0874599 -4.39701 -0.0265835 -0.339191 -0.163006 
1615 0.374282 0.0274556 0.0442681 0.712676 -4.35804 0.302319 -0.887286 -0.164122 
1616 0.400234 -0.00109053 0.0429381 0.416901 -4.33516 -0.401877 0.918453 0.173018 
1656 0.400095 0.0514853 0.0427558 0.310586 -4.33218 -0.0933302 -0.464411 0.568225 
818 0.450198 0.0253136 0.0184545 0.126884 -4.42229 -0.138046 -0.0288465 -0.17479 
857 0.424882 0.0522843 0.0189023 0.519279 -4.40587 0.21943 -0.860904 -0.0399874 
1617 0.425446 0.0249462 0.0432244 0.196071 -4.36767 -0.666491 0.190803 -0.384611 
1618 0.450482 1.00136 0.0426435 0.303283 -4.34042 -0.274649 -0.732922 0.383691 
1658 0.450518 0.0498498 0.0451969 0.227168 -4.3486 -0.366663 0.303202 -0.477539 
817 0.423712 0.999354 0.0168408 0.478763 -4.37388 0.635107 0.159646 0.620105 
820 0.499438 0.0258855 0.0179692 0.176224 -4.40976 0.341611 -0.193659 0.311537 
859 0.47557 0.0490393 0.018834 0.177077 -4.37795 -0.176602 0.561006 0.2328 
861 0.524636 0.0505332 0.0175331 0.16452 -4.4234 0.104533 0.543505 0.326687 
1619 0.476198 0.0258572 0.0439741 0.27671 -4.3739 -0.3742 -0.0990427 0.145294 
1621 0.524099 0.0252373 0.0433643 0.150926 -4.36737 0.466532 0.199576 -0.188947 
1660 0.501442 0.0516545 0.0447296 0.653548 -4.35882 -0.592279 -0.469161 -0.468693 
819 0.47543 1.00037 0.0190127 0.219371 -4.41393 0.0204362 0.164346 -0.550074 
62 0.548629 0.048549 0.99187 15.0764 -3.75586 0.11082 0.756007 0.00355367 
822 0.548613 0.0239182 0.0184111 0.434924 -4.39967 0.3309 0.652199 -0.0576071 
863 0.572775 0.0502932 0.0175237 0.383476 -4.40203 0.659066 -0.223495 -0.0446219 
1623 0.574058 0.0252021 0.0427088 0.100725 -4.38114 0.124003 0.196091 0.156357 
1662 0.548826 0.050801 0.0429575 0.243539 -4.38539 0.172818 -0.154701 0.0521908 
823 0.575672 1.00121 0.0170196 0.398419 -4.37885 -0.735955 -0.351556 0.142314 
1622 0.549362 1.00006 0.0431411 0.149135 -4.36604 0.355162 -0.105448 -0.201207 
824 0.598741 0.0259873 0.0169617 0.114875 -4.39061 -0.0102483 -0.216972 0.118246 
825 0.624579 1.00062 0.0180169 0.287805 -4.37223 -0.692131 0.177178 -0.633766 
865 0.622907 0.0491118 0.0186617 0.553441 -4.37473 0.739686 0.643268 -0.940683 
1625 0.62341 0.0251822 0.0432424 0.232947 -4.3615 0.288966 -0.0212617 0.183805 
1664 0.599505 0.0496287 0.0431767 0.0953679 -4.34925 -0.249991 0.373253 0.210099 
1624 0.598928 1.00064 0.0431888 0.0918874 -4.36684 0.324043 0.428914 0.233052 
826 0.649809 0.0249962 0.0189012 0.479643 -4.38923 -0.133667 -0.0598603 -0.622813 
828 0.700189 0.0248564 0.01808 0.233642 -4.38927 -0.811362 0.199421 -0.42279 
867 0.673652 0.0509617 0.0169832 0.327623 -4.35819 0.21394 -1.09631 0.343297 
1626 0.647379 0.999683 0.0420357 0.853879 -4.27517 1.51581 0.518542 0.86196 
1627 0.675332 0.0247392 0.0428092 0.225463 -4.32635 -0.654306 0.150767 -0.150016 
1628 0.698462 5.76985e-05 0.0424374 0.350761 -4.33861 0.858975 -0.0742273 0.243926 
1666 0.648763 0.0503404 0.0422942 0.207271 -4.34523 0.501619 -0.139699 0.221438 
1668 0.699845 0.0491885 0.0426385 0.242654 -4.34028 -0.46513 0.567939 0.0314248 
827 0.674398 0.997522 0.0187901 0.468317 -4.37123 -0.101731 0.863581 -0.151403 
830 0.748801 0.0252155 0.017946 0.203302 -4.39067 0.0015314 -0.140924 -0.302439 
869 0.723939 0.0510921 0.0171201 0.45643 -4.39094 0.409911 -0.681187 0.131258 
1629 0.725184 0.0257234 0.0417936 0.442878 -4.32448 -0.35099 -0.298303 0.825163 
1670 0.748874 0.0501969 0.044558 0.300245 -4.34671 0.179999 0.172497 -0.779928 
1630 0.749268 -0.00165387 0.0426079 0.311645 -4.34985 0.374559 0.474715 0.292037 
832 0.798911 0.0256562 0.0182535 0.193728 -4.35487 0.118467 -0.861708 0.239493 
871 0.773016 0.0505233 0.0181752 0.237647 -4.39309 -0.144692 -0.368474 0.338281 
1631 0.774381 0.0246045 0.0426874 0.16169 -4.35911 -0.454613 0.0190315 0.527545 
1632 0.798314 0.999676 0.0435466 0.235466 -4.35738 0.746039 0.0563886 -0.152431 
1672 0.798459 0.0488433 0.043047 0.390449 -4.35961 0.282158 0.733662 0.434724 
834 0.849664 0.0236077 0.0182609 0.220759 -4.38334 0.302582 0.598117 -0.0128291 
835 0.873904 1.0002 0.0168762 0.332655 -4.34807 0.365713 -0.0808294 0.582082 
873 0.825275 0.0488478 0.0198315 0.312353 -4.37533 -0.312344 0.209937 -0.374498 
875 0.8748 0.0486483 0.0177969 0.15439 -4.41248 0.000246352 -0.135749 -0.268006 
1633 0.824656 0.0244215 0.0438895 0.0705024 -4.39197 -0.158388 0.0313742 0.25184 
1635 0.875426 0.0252682 0.0445054 0.470905 -4.32111 -0.54386 -0.694964 -0.871178 
1674 0.850184 0.0488003 0.0444697 0.139531 -4.36294 -0.0339268 -0.160423 -0.146079 
833 0.824783 -0.000356088 0.0190233 0.395365 -4.39619 -0.817196 -0.0506308 -0.165344 
836 0.901351 0.0239733 0.0171956 0.546971 -4.38903 -0.82434 0.029433 0.437143 
877 0.924232 0.0490251 0.0194139 0.260085 -4.43104 0.310478 0.0763154 -0.347066 
1637 0.925089 0.0240876 0.0458781 0.764682 -4.31385 -0.295028 -0.400218 -1.22819 
1676 0.899712 0.048193 0.0433534 0.193996 -4.34704 -0.234406 0.503666 0.105512 
837 0.926741 0.000523363 0.0187678 0.525133 -4.35326 -1.11838 -0.450091 0.0826115 
1636 0.899479 -0.00064288 0.0422517 0.3506 -4.37755 0.12802 -0.170407 0.0968929 
800 1.00005 0.0250985 0.0204079 4.72992 -4.22797 -0.0642561 -0.438708 -0.578509 
1640 0.00028968 0.0493098 0.0437351 0.214591 -4.36228 -0.321468 0.526725 0.460137 
838 0.949751 0.0243902 0.0194639 0.139603 -4.37749 -0.0808213 0.346105 -0.322996 
879 0.974341 0.0494459 0.0194872 0.170683 -4.4361 0.228833 0.209808 -0.109067 
1638 0.949975 0.999464 0.0441824 0.162309 -4.38135 0.284106 -0.272782 0.00762091 
1639 0.974821 0.0231292 0.0429168 0.551519 -4.32119 -0.210539 0.65118 1.03739 
1678 0.94952 0.0486387 0.0434297 0.253534 -4.3436 0.211962 0.290272 0.380003 
839 0.975605 0.000116438 0.0177675 4.94214 -4.24438 -0.299461 -0.736784 0.317516 
842 0.0501159 0.0750988 0.0181398 0.247347 -4.39083 -0.153101 -0.239829 0.423242 
881 0.0263938 0.099791 0.01974 0.709427 -4.37464 -1.03548 -0.0441799 -0.762001 
1641 0.0260864 0.0740695 0.0435457 0.318537 -4.35554 -0.759438 -0.0431559 -0.011405 
1682 0.0495113 0.0995377 0.0449467 0.236341 -4.35983 0.108579 0.210171 -0.259439 
844 0.0997704 0.0759529 0.0183531 0.279475 -4.39002 0.0534309 -0.292021 0.191493 
883 0.073327 0.100899 0.0182836 0.373669 -4.42186 0.635768 -0.224568 0.0661149 
1643 0.0753751 0.0755789 0.0429936 0.370122 -4.3727 -0.228377 0.0131087 0.474114 
1684 0.0999326 0.101373 0.0442249 0.235929 -4.35326 0.015767 -0.617329 0.0115554 
846 0.150496 0.0754959 0.0184636 0.123575 -4.38702 0.100669 0.0363202 0.695579 
885 0.124903 0.0994437 0.019543 0.393868 -4.37734 0.14304 0.850422 0.0952878 
887 0.175511 0.102275 0.0189164 0.578394 -4.3927 0.157658 -0.962358 0.146987 
1645 0.125999 0.074999 0.0436517 0.24791 -4.35059 -0.564023 0.160242 0.434238 
1647 0.175344 0.0743235 0.0446129 0.19866 -4.32025 -1.05345 0.680964 -0.120862 
1686 0.150456 0.101059 0.0451004 0.15017 -4.4003 -0.0188689 -0.33566 -0.234672 
45 0.12663 0.077307 0.994417 13.2857 -3.75268 -0.545662 -0.811452 -0.482727 
47 0.173479 0.0753703 0.994105 15.5369 -3.77812 0.7175 0.0392798 -0.199835 
848 0.199515 0.0740804 0.0196139 0.390321 -4.35601 0.0804735 0.925535 -1.24976 
889 0.224616 0.0998473 0.01789 0.149454 -4.39303 -0.644647 0.0847679 -0.142282 
1649 0.225546 0.0751671 0.043204 0.493747 -4.36109 -0.858138 -0.326011 0.425262 
1688 0.19894 0.0996681 0.0448633 0.261559 -4.36462 0.47011 0.101505 -0.486402 
850 0.249264 0.0741042 0.0182662 0.225895 -4.38964 0.487419 0.0942624 -0.232737 
891 0.272992 0.0997994 0.0180762 0.335721 -4.39138 0.386937 -0.418642 0.291074 
1651 0.272925 0.0739576 0.044655 0.382896 -4.35863 0.39387 0.396372 -0.0182356 
1690 0.247827 0.0993628 0.0429568 0.340654 -4.32087 0.728709 0.473281 0.49055 
852 0.298212 0.0742043 0.0209716 1.06944 -4.37788 0.626804 0.77619 -0.836569 
854 0.349092 0.0750574 0.0180746 0.176585 -4.37901 0.297532 0.361799 0.559933 
893 0.325413 0.0997827 0.0189116 0.144063 -4.38714 -0.0526183 -0.195193 0.19864 
1653 0.325509 0.0746159 0.0438517 0.296014 -4.3765 -0.417781 0.0343812 0.23197 
1692 0.299948 0.0990614 0.0454291 0.448855 -4.30511 -0.644315 0.0549591 -1.04052 
1694 0.350838 0.100122 0.0452476 0.360518 -4.37569 -0.189199 -0.012309 -0.467697 
856 0.398829 0.0755305 0.0180346 0.183606 -4.38637 -0.0612217 0.258077 0.240574 
895 0.374701 0.100186 0.0178176 0.125598 -4.41728 -0.185816 -0.0340253 0.406885 
1655 0.373936 0.0741125 0.0449426 0.422388 -4.376 0.112097 0.491158 -0.524534 
1696 0.398821 0.10054 0.0448399 0.347715 -4.36099 0.369349 -0.269775 -0.665247 
858 0.451065 0.0737934 0.0204499 0.644635 -4.38289 -0.225297 0.324042 -0.500547 
897 0.424109 0.0976847 0.0180195 0.643236 -4.39281 0.302449 0.878538 0.13604 
1657 0.424364 0.076039 0.0434034 0.327174 -4.32867 0.301954 -0.0956406 1.01638 
1698 0.449869 0.100285 0.0440566 0.110106 -4.36586 -0.171075 -0.214125 -0.087747 
860 0.499362 0.0752993 0.0186111 0.185934 -4.40272 0.459555 -0.154608 -0.0797509 
899 0.474514 0.0996326 0.0184411 0.130036 -4.38091 0.274541 -0.226992 0.182793 
901 0.526186 0.0994587 0.0168614 0.407488 -4.38809 -0.84629 0.207181 -0.0951049 
1659 0.475193 0.0749098 0.0462721 0.547988 -4.36121 -0.0690121 0.0685712 -0.99047 
1661 0.52538 0.0768535 0.0454555 0.994919 -4.29328 0.103283 -0.871474 -1.07107 
1700 0.500849 0.0998976 0.0426327 0.309903 -4.37176 -0.225553 0.438826 0.466101 
862 0.550856 0.0756035 0.0163033 0.31875 -4.37127 -0.620807 -0.154382 0.152988 
903 0.575461 0.100132 0.0164884 0.158152 -4.41559 -0.244196 0.258179 -0.0152016 
1663 0.575068 0.0748347 0.0430742 0.163726 -4.34248 -0.374549 0.186418 -0.0402338 
1702 0.550175 0.099483 0.0414051 0.494958 -4.34124 0.360017 0.433226 0.891389 
864 0.598227 0.0738516 0.0163262 0.385895 -4.4092 0.299547 0.21763 0.520418 
905 0.624483 0.0982956 0.0168212 0.450373 -4.38899 -0.248477 1.26831 0.235232 
1665 0.625239 0.0745052 0.042412 0.273255 -4.36075 -0.74277 0.312167 0.305827 
1704 0.59963 0.0989353 0.0418951 0.292951 -4.34305 -0.0435012 0.688931 0.379878 
866 0.648774 0.0745 0.0165177 0.19915 -4.38115 -0.122799 0.177751 0.288261 
868 0.698401 0.073738 0.0173876 0.379181 -4.35891 0.579341 0.842905 0.524197 
907 0.672642 0.0999269 0.0170465 0.537159 -4.37629 0.787495 0.510638 0.449944 
1667 0.673996 0.0746233 0.0425693 0.137881 -4.36983 0.133628 0.512537 0.327449 
1706 0.649669 0.0999264 0.0429545 0.176042 -4.3679 -0.283575 0.0725518 0.121597 
1708 0.699814 0.100551 0.0439881 0.196526 -4.35027 -0.779439 -0.154263 -0.383528 
870 0.749055 0.0755154 0.018003 0.128696 -4.37207 -0.23754 -0.238 0.403702 
909 0.724323 0.100259 0.018157 0.139259 -4.41875 -0.165071 0.0129676 0.194547 
1669 0.723466 0.0743426 0.0435514 0.202985 -4.37064 0.117847 0.629146 -0.252951 
1710 0.748659 0.0999751 0.044009 0.0746053 -4.36818 -0.291766 0.00119604 -0.0797587 
872 0.79932 0.0748531 0.0186277 0.164676 -4.39367 -0.427614 -0.0824011 0.129039 
911 0.773161 0.100777 0.0185627 0.163493 -4.4156 0.776822 -0.0381159 0.0389741 
1671 0.77312 0.0757955 0.0438806 0.156758 -4.36094 0.492677 -0.357242 -0.16175 
1712 0.799663 0.0998292 0.0440754 0.137336 -4.34423 -0.365776 -0.0790436 -0.348227 
874 0.849613 0.0725902 0.0186831 0.357021 -4.37847 0.026454 0.645735 -0.443093 
913 0.822905 0.0990498 0.0178068 0.46573 -4.3525 0.821672 0.283151 0.0455327 
915 0.873957 0.0986138 0.0195252 0.38405 -4.36928 0.456187 0.278629 -0.725751 
1673 0.825406 0.0734486 0.0433839 0.353696 -4.33737 -0.754019 0.701752 0.0856048 
1675 0.874792 0.0734012 0.0431172 0.200791 -4.37419 -0.178125 -0.0563855 0.338713 
1714 0.849247 0.0984769 0.042753 0.293313 -4.34615 -0.283565 0.280807 0.128192 
876 0.900031 0.0742007 0.0190323 0.18386 -4.40003 -0.598148 -0.161276 -0.39005 
917 0.924241 0.0985102 0.0187258 0.159184 -4.37759 -0.284556 0.162826 0.16597 
1677 0.924832 0.0746554 0.0432586 0.230535 -4.33778 -0.460298 -0.380069 0.530972 
1716 0.899321 0.0980211 0.0453724 0.349914 -4.34152 -0.290269 0.234151 -0.82872 
840 1.00006 0.0740593 0.0179038 0.164631 -4.4076 -0.0593654 0.29954 0.271851 
1680 0.000352517 0.0996634 0.0431272 0.139841 -4.35907 -0.29879 0.0509798 -0.0972272 
878 0.94921 0.0751656 0.019955 0.260029 -4.41263 0.451925 -0.612086 -0.591499 
919 0.975393 0.0995078 0.0182815 0.273118 -4.40671 -0.377256 0.0381482 0.267827 
1679 0.975253 0.0758028 0.0451322 0.524698 -4.33301 -0.179951 -0.585159 -0.803908 
1718 0.949624 0.0998619 0.0435426 0.166044 -4.37208 -0.0364577 0.103585 0.634536 
81 0.0229935 0.124144 0.992937 15.4618 -3.76699 0.739528 0.328556 0.0984363 
882 0.0492963 0.125539 0.0186893 0.285845 -4.3757 -0.306714 -0.618563 0.000328166 
921 0.0249247 0.15083 0.0186741 0.362961 -4.41384 -0.183923 -0.584503 -0.0549462 
922 0.0502839 0.175146 0.0188365 0.290101 -4.41093 0.198447 -0.287714 0.148822 
1681 0.0244763 0.12464 0.0440282 0.0408031 -4.35699 -0.0913737 0.00133818 -0.194963 
1721 0.0241784 0.175572 0.0440592 0.302981 -4.29853 0.178165 -0.673593 -0.954869 
1722 0.0483165 0.149214 0.0438774 0.245127 -4.34673 0.875587 0.517148 0.236748 
920 -0.000906627 0.173102 0.0167592 0.566689 -4.37365 0.23891 0.972645 0.500607 
884 0.0995318 0.125052 0.0186896 0.1716 -4.39802 0.185369 -0.327969 0.0970545 
923 0.0744987 0.147834 0.0197773 0.593416 -4.37885 -0.287367 1.15278 -0.182629 
924 0.10001 0.174693 0.0187277 0.0763571 -4.41843 -0.0764459 -0.0587702 0.264396 
1683 0.074661 0.124398 0.0440047 0.096756 -4.35151 -0.154408 0.0618402 0.538471 
1723 0.0754521 0.1747 0.0447177 0.149464 -4.36651 -0.511343 -0.14011 -0.249196 
1724 0.0999244 0.149835 0.043532 0.161577 -4.36094 0.0761866 -0.157688 0.424938 
886 0.149546 0.12564 0.0195616 0.156988 -4.36904 -0.233989 -0.553407 -0.442816 
925 0.125076 0.15089 0.0194432 0.291742 -4.37119 -0.307357 -0.291852 -0.677419 
926 0.150318 0.175607 0.0181012 0.376077 -4.39116 -0.251071 -0.575744 0.256788 
927 0.174514 0.149514 0.0199212 0.312346 -4.37627 0.199336 0.327103 -1.18392 
1685 0.12553 0.126428 0.0440813 0.190526 -4.35687 -0.399709 -0.659516 0.195563 
1687 0.174062 0.126633 0.0440558 0.466873 -4.30606 1.28038 -0.813512 0.325905 
1725 0.126246 0.174603 0.0437243 0.248894 -4.35469 -0.0952137 -0.272716 0.306574 
1726 0.150329 0.148807 0.0440322 0.462896 -4.26384 -0.469538 1.55686 0.222787 
1727 0.174423 0.173798 0.0437007 0.379114 -4.37461 0.055176 0.719805 0.452587 
125 0.124647 0.174536 0.992592 16.7013 -3.77114 0.259151 -0.152385 0.338115 
126 0.148796 0.148156 0.994028 14.4279 -3.78249 0.267138 0.400836 -0.144521 
888 0.200896 0.126505 0.0182031 0.485068 -4.37717 -0.274607 -0.59553 0.119964 
928 0.199668 0.175534 0.0189216 0.193515 -4.43948 -0.0778088 -0.130819 -0.356302 
929 0.225988 0.151633 0.0181251 0.436014 -4.37444 -0.805878 -0.424933 -0.189846 
1689 0.223537 0.124528 0.0441451 0.196085 -4.34749 0.2998 0.0510534 -0.239474 
1728 0.200246 0.15076 0.0438392 0.259231 -4.33613 -0.0840042 -0.64322 -0.158852 
1729 0.225029 0.176066 0.0435644 0.271904 -4.33207 -0.0190223 -0.343935 0.066724 
128 0.199632 0.151078 0.99367 15.5606 -3.77957 -0.313399 -0.0528081 -0.06994 
890 0.248509 0.126064 0.0178226 0.257285 -4.42301 0.0699372 -0.318408 0.00133251 
930 0.25021 0.174555 0.0185352 0.296131 -4.38411 0.104368 0.733206 -0.780864 
931 0.275142 0.15 0.0183906 0.115705 -4.41771 0.297295 -0.0168869 -0.211334 
1691 0.274064 0.123704 0.0428014 0.316424 -4.36237 -0.0750804 0.543531 0.0277897 
1730 0.248921 0.150402 0.0428523 0.162835 -4.33578 0.44055 -0.714118 0.374236 
1731 0.275232 0.174783 0.0421921 0.420177 -4.33483 0.380024 -0.308298 1.02359 
130 0.251033 0.151207 0.991724 16.1106 -3.78821 0.0747285 -0.0703965 0.234962 
892 0.300582 0.12301 0.0187998 0.496591 -4.37428 -0.450973 0.80352 0.287265 
894 0.350863 0.125854 0.0193328 0.383973 -4.39937 -0.847866 -0.586062 -0.318141 
932 0.301843 0.176078 0.0179299 0.35012 -4.33415 -0.550271 -0.770903 -0.160796 
933 0.32449 0.150823 0.0176023 0.312864 -4.38823 0.0948269 -0.814433 0.349697 
934 0.349171 0.175344 0.0176858 0.093407 -4.44009 0.506015 0.249739 0.159615 
1693 0.324834 0.123645 0.04481 0.354175 -4.34917 0.35671 0.939159 -0.549611 
1732 0.299422 0.149218 0.0441114 0.21487 -4.34603 0.271826 0.444871 -0.307352 
1733 0.324701 0.17396 0.0434426 0.304322 -4.33005 0.223781 0.587587 0.7771 
1734 0.350087 0.150026 0.0436702 0.113564 -4.35743 -0.214809 0.243081 0.343595 
896 0.399636 0.123705 0.0177843 0.217465 -4.40993 -0.3806 0.541666 -0.122129 
935 0.373838 0.150123 0.0167163 0.300951 -4.35421 0.650265 0.195584 0.384305 
936 0.397386 0.174116 0.017757 0.930249 -4.36573 1.05877 0.185215 -0.438967 
1695 0.3753 0.126149 0.0440763 0.18912 -4.35787 0.0509947 -0.199038 0.0147937 
1735 0.374553 0.174782 0.0443531 0.151746 -4.37655 -0.194911 0.0377171 -0.135674 
1736 0.400081 0.149565 0.0440449 0.203654 -4.34994 -0.221364 0.230266 -0.388233 
898 0.450625 0.124052 0.0173718 0.259501 -4.36413 -0.152039 0.22496 0.606599 
937 0.424546 0.148851 0.0176346 0.167918 -4.36096 -0.421782 0.503658 0.245423 
938 0.448109 0.175483 0.0175199 0.47525 -4.36303 0.766522 0.314379 0.0491521 
1697 0.42446 0.124122 0.0421829 0.403299 -4.38452 0.235868 0.120856 0.494908 
1737 0.424559 0.175722 0.0411615 0.744484 -4.31446 -0.363582 -0.80131 1.00343 
1738 0.449764 0.150116 0.0426306 0.123726 -4.37566 -0.494948 -0.318383 0.204804 
900 0.499636 0.124506 0.0175002 0.24207 -4.4122 0.614976 0.21342 0.438831 
939 0.475422 0.151648 0.0182186 0.360246 -4.38192 -0.2363 -0.815047 0.0286235 
940 0.499676 0.175939 0.0181163 0.162156 -4.37434 0.305468 -0.406737 -0.0918443 
941 0.525866 0.150362 0.0185912 0.210878 -4.39996 -0.443071 -0.0163226 -0.444032 
1699 0.474562 0.124712 0.0426741 0.193082 -4.36042 0.21627 0.413059 0.143971 
1701 0.525731 0.126389 0.0429026 0.247321 -4.35458 -0.47654 -0.613077 0.144518 
1739 0.473069 0.175453 0.041778 0.581235 -4.32295 0.215105 -0.0301699 0.660469 
1740 0.499902 0.150896 0.0439035 0.215565 -4.37908 -0.132583 0.0631859 -0.505158 
1741 0.525464 0.173985 0.0436408 0.277958 -4.3594 0.265238 0.488314 0.13835 
902 0.549331 0.124871 0.0175713 0.235518 -4.42435 0.396512 0.184639 -0.363851 
942 0.550586 0.17548 0.017999 0.0889365 -4.40589 -0.218134 0.160407 0.0546953 
943 0.574369 0.150352 0.0174669 0.125817 -4.38889 0.316166 0.404205 -0.311653 
1703 0.575403 0.126026 0.0420297 0.252318 -4.3498 -0.0170034 -0.77758 0.387715 
1742 0.551702 0.150063 0.0431474 0.27453 -4.33465 -0.69245 0.289958 0.109753 
1743 0.574591 0.175635 0.0432825 0.219253 -4.34704 0.693029 -0.382379 -0.171095 
105 0.624474 0.124449 0.990505 16.5139 -3.77263 -0.00263829 0.469822 0.327955 
904 0.599036 0.126823 0.0164686 0.577195 -4.38194 0.623716 -0.785639 0.0508824 
944 0.600205 0.174919 0.017027 0.258335 -4.41039 -0.527797 -0.375151 0.323191 
945 0.625856 0.148687 0.0173859 0.728394 -4.32665 -0.962099 0.868684 -0.433863 
1705 0.624512 0.124965 0.0421742 0.232334 -4.34421 -0.298311 -0.514189 0.426112 
1744 0.600963 0.150048 0.0438864 0.283727 -4.3683 -0.443671 0.31413 -0.427723 
1745 0.623816 0.174729 0.0437668 0.235683 -4.33942 0.546023 0.255387 -0.0963312 
906 0.648592 0.12514 0.0167434 0.295479 -4.37311 0.90162 -0.198792 0.00864341 
908 0.697612 0.125846 0.0189313 0.587476 -4.3639 0.553433 -0.971537 0.00792258 
946 0.649117 0.174803 0.0194941 0.38155 -4.37877 -0.0161543 0.215622 -0.770234 
947 0.674908 0.149259 0.0190939 0.516776 -4.37344 -0.903566 0.554814 -0.505864 
948 0.699158 0.174516 0.0176203 0.389765 -4.33597 -0.400075 0.262994 1.1549 
1707 0.673266 0.126248 0.0455086 0.520744 -4.35544 0.156047 -0.456078 -0.486122 
1746 0.647755 0.150334 0.043801 0.450246 -4.34569 0.764924 -0.342755 0.208054 
1747 0.67461 0.174569 0.0428464 0.51055 -4.37 0.0816485 -0.0397861 0.7222 
1748 0.699367 0.149802 0.0451186 0.229745 -4.34491 -0.337727 0.17928 -0.231205 
146 0.649984 0.152217 0.991756 15.5312 -3.76221 -0.0423963 -0.711938 0.234044 
910 0.749017 0.125414 0.0182987 0.182681 -4.39703 -0.188137 -0.191108 0.381893 
949 0.723413 0.148378 0.019105 0.652044 -4.3744 0.00721236 0.941846 0.252574 
1709 0.723571 0.125433 0.0442106 0.0961298 -4.33779 0.60963 -0.191361 -0.0962188 
1749 0.722605 0.175336 0.0437221 0.602945 -4.34633 0.16214 -0.633792 0.691751 
1750 0.748952 0.151533 0.0434201 0.5881 -4.32997 -0.104381 -0.977347 0.741357 
912 0.799219 0.126396 0.0184602 0.416653 -4.36554 -0.588482 -1.04372 0.453726 
951 0.77408 0.150191 0.019456 0.167681 -4.4002 0.118899 -0.147148 -0.141361 
952 0.79823 0.17501 0.0190768 0.19242 -4.35931 0.639087 -0.574632 -0.411969 
1711 0.773082 0.125005 0.0438284 0.269455 -4.35118 0.753715 -0.0403314 0.243623 
1751 0.776022 0.175728 0.0435397 0.700381 -4.31122 -0.706242 -0.669216 0.825801 
1752 0.799839 0.149286 0.0453208 0.321297 -4.36309 -0.241102 0.0842361 -0.0538004 
914 0.850985 0.126934 0.017505 1.50653 -4.32329 -0.714759 -1.29137 0.364406 
953 0.82391 0.149223 0.0203206 0.544229 -4.38818 0.129603 0.617814 -0.791165 
954 0.84823 0.174741 0.0181532 0.154268 -4.43089 -0.0169715 -0.41866 0.111332 
955 0.874225 0.150828 0.0205642 0.858927 -4.33959 0.0431574 -0.440492 -1.40443 
1713 0.824819 0.123697 0.0427072 0.416447 -4.33825 0.331299 0.170651 0.491178 
1715 0.874036 0.123088 0.0437082 0.295639 -4.36975 -0.102065 0.210759 0.210513 
1753 0.823468 0.17529 0.0444486 0.175827 -4.36717 0.0695989 -0.539198 0.140946 
1754 0.84983 0.149459 0.0442223 0.18961 -4.3707 -0.247167 0.0545845 0.364859 
1755 0.87554 0.175193 0.0435672 0.638651 -4.28494 -1.13738 -0.56057 0.668321 
916 0.899912 0.124042 0.0198414 0.199846 -4.40818 -0.877164 -0.146065 -0.719843 
956 0.8997 0.173939 0.0189055 0.328005 -4.36708 -0.422045 0.328744 -0.569123 
957 0.923992 0.149238 0.0185593 0.0785967 -4.39526 0.0476119 -0.0281371 -0.028316 
1717 0.922685 0.123837 0.0433005 0.289767 -4.329 0.749484 -0.0632518 0.729304 
1756 0.897556 0.148301 0.0438598 0.426117 -4.33512 0.847226 0.494154 0.359206 
1757 0.923491 0.174336 0.0419525 0.402012 -4.35369 0.437857 -0.0690156 1.11572 
880 -0.000391182 0.125017 0.0175212 0.236237 -4.39983 0.194884 0.104125 0.476257 
1720 0.99978 0.149682 0.0436295 0.12368 -4.37535 -0.411655 0.0478611 -0.142168 
918 0.947186 0.123607 0.0195391 0.611193 -4.37648 1.13046 0.453089 -0.223651 
958 0.948581 0.173786 0.0173904 0.140011 -4.40328 0.130569 0.0669354 0.196741 
959 0.974027 0.148726 0.0194771 0.401919 -4.37716 -0.200553 0.25865 -0.988904 
1719 0.974584 0.124766 0.0435717 0.0914597 -4.37945 0.050652 -0.313146 0.254465 
1758 0.948631 0.148619 0.0441132 0.164308 -4.35727 -0.0535086 0.220948 -0.093716 
1759 0.97307 0.174182 0.0421987 0.372016 -4.35565 0.335027 0.162273 0.597998 
961 0.0255951 0.199103 0.0183016 0.195202 -4.41954 -0.477906 -0.0693442 -0.106635 
962 0.051446 0.222392 0.0179199 0.61824 -4.37348 0.0631595 1.01129 0.50856 
1761 0.0245606 0.224139 0.0434761 0.157112 -4.38087 0.0401288 -0.302951 -0.0385471 
1762 0.049483 0.199189 0.0449659 0.294192 -4.34081 0.520156 0.155803 -0.348053 
963 0.0756197 0.1993 0.0175814 0.244439 -4.35993 0.104108 0.107084 0.690077 
964 0.1006 0.225128 0.0188911 0.118139 -4.41278 -0.198119 -0.113127 -0.240183 
1763 0.076279 0.223624 0.0446328 0.280638 -4.31622 -0.432648 0.378434 -0.610214 
1764 0.102072 0.199436 0.0448756 0.381446 -4.35229 -0.719236 0.416922 -0.616165 
166 0.150171 0.200447 0.9941 16.8006 -3.78702 -0.159562 0.0105079 -0.229876 
965 0.12589 0.200204 0.0199685 0.230653 -4.40802 -0.425332 -0.156044 -0.977472 
966 0.151423 0.224679 0.0199008 0.287816 -4.39825 -0.635693 0.367426 -0.532479 
967 0.174693 0.20001 0.0198426 0.251737 -4.40275 0.338073 -0.128107 -0.622708 
1765 0.127045 0.224936 0.044201 0.332267 -4.35655 -0.94112 0.388146 0.307372 
1766 0.149343 0.199501 0.0446579 0.266835 -4.35214 0.827427 -0.137804 0.284609 
1767 0.175033 0.224659 0.0448886 0.147934 -4.35029 0.154678 0.0565471 -0.0549891 
168 0.198854 0.198613 0.990941 16.5074 -3.76723 -0.300587 0.220381 0.776764 
968 0.199822 0.224711 0.019338 0.255599 -4.38007 -0.251465 -0.138259 -0.907026 
969 0.224474 0.199715 0.0182299 0.153164 -4.37962 0.4393 -0.230817 -0.3353 
1768 0.200326 0.20105 0.0433353 0.271603 -4.33145 -0.146217 -0.569365 0.737403 
1769 0.225233 0.225204 0.0432275 0.135617 -4.35685 0.138391 -0.544304 -0.0312466 
970 0.250557 0.224776 0.0189927 0.188691 -4.35346 -0.859643 -0.30829 -0.017227 
971 0.276876 0.199361 0.0191797 0.392693 -4.3442 -0.483866 0.401457 -0.357052 
1770 0.250654 0.198971 0.0438173 0.18951 -4.3662 -0.20668 0.488592 -0.0183484 
1771 0.275362 0.225339 0.0428022 0.376113 -4.386 -0.0907801 -0.422456 0.646189 
972 0.300911 0.225264 0.0204995 0.650624 -4.36702 -0.315218 -0.276522 -0.909868 
973 0.32474 0.200376 0.0170141 0.324336 -4.39581 0.722336 0.323099 0.400992 
974 0.350719 0.225073 0.0182016 0.421934 -4.39251 -0.854194 0.173576 0.213575 
1772 0.301085 0.198866 0.0432548 0.434938 -4.29657 -0.405188 -0.0694698 0.968121 
1773 0.324871 0.222627 0.044796 0.79993 -4.31274 0.358885 1.10194 -0.198434 
1774 0.349653 0.200099 0.0452073 0.232698 -4.35082 -0.101067 -0.483144 -0.386583 
975 0.373983 0.200525 0.0177386 0.211995 -4.39657 0.0173966 -0.139907 0.0644755 
976 0.399108 0.226297 0.0191421 0.163781 -4.41463 -0.346577 0.0662911 -0.247602 
1775 0.373047 0.225731 0.0440172 0.302262 -4.35316 0.822393 -0.18503 0.392722 
1776 0.398852 0.200275 0.042341 0.327659 -4.36085 -0.42327 0.17609 0.383765 
977 0.424357 0.2012 0.0201722 0.756182 -4.30967 -0.224922 -0.415805 -1.45908 
978 0.44878 0.223964 0.0197026 0.670637 -4.3538 0.342268 0.847114 -1.07376 
1777 0.423962 0.226349 0.0434938 0.198234 -4.34114 -0.339589 0.0690759 0.100751 
1778 0.448913 0.201755 0.043949 0.433453 -4.28224 0.193537 -1.05881 -0.153434 
178 0.4505 0.200854 0.992215 16.2194 -3.7766 -0.72468 0.00445514 0.235929 
979 0.474248 0.200279 0.0177966 0.160332 -4.43407 0.0509597 0.153692 0.373691 
980 0.499678 0.223373 0.0193524 0.327135 -4.40256 -0.316097 0.336613 -0.280421 
981 0.524168 0.199671 0.0183049 0.0998246 -4.40403 0.561621 0.00567836 0.247766 
1779 0.474748 0.225042 0.0449162 0.516447 -4.33241 -0.216634 -0.547466 -0.755505 
1780 0.50035 0.19728 0.0440007 1.0139 -4.32869 -0.587706 0.946927 0.0543038 
1781 0.52265 0.224302 0.0450795 0.608442 -4.31761 0.578656 0.0540332 -0.867503 
982 0.549576 0.225028 0.0195368 0.212126 -4.41333 0.271102 -0.10263 -0.285308 
983 0.575168 0.200687 0.0190489 0.203005 -4.38926 -0.337988 -0.429763 -0.681352 
1782 0.549986 0.199983 0.0438892 0.119813 -4.36358 -0.397587 -0.142365 -0.157873 
1783 0.575412 0.223816 0.0439189 0.277678 -4.30849 -0.660818 0.446204 -0.15314 
183 0.574482 0.225313 0.992213 17.6124 -3.77542 -0.0632574 0.179267 0.296834 
984 0.598653 0.224618 0.0185407 0.300628 -4.3736 0.399308 0.486655 -0.210691 
985 0.622953 0.20134 0.0173776 0.724593 -4.33307 1.04519 -0.927146 0.326956 
1784 0.599914 0.198393 0.0428914 0.428557 -4.34101 0.0212273 0.695338 0.58736 