ITEM: TIMESTEP
3750
ITEM: NUMBER OF ATOMS
28567
ITEM: BOX BOUNDS pp pp pp
-2.9590325318404282e+00 7.3359032531840626e+01
-8.1196906086969278e-01 7.1211969060869535e+01
6.6160961277255259e+00 6.3783903872274792e+01
ITEM: ATOMS id xs ys zs c_csym c_peratom fx fy fz 
1601 0.0402426 0.0249621 0.989436 0.528674 -4.28418 -0.0286905 0.654154 -1.25339 
1642 0.0630751 0.0511019 0.988354 0.245701 -4.32566 -0.109284 -0.13515 -0.00790645 
2402 0.0630456 0.026995 0.0187121 0.290302 -4.38443 -0.226457 0.120103 -0.188771 
2441 0.0380594 0.0521725 0.0155971 0.393742 -4.32347 0.971367 -0.355593 0.551257 
3201 0.0381257 0.0251447 0.0457624 0.681287 -4.35902 0.118985 0.946899 -0.0902485 
3242 0.0610728 0.0530968 0.0466709 0.201932 -4.32453 -0.334198 0.201158 -0.200852 
2400 0.0159641 0.0249778 0.0149336 0.182835 -4.29827 -0.126939 0.671575 0.351998 
3240 0.0157543 0.0519186 0.0434775 0.458202 -4.34444 -1.07164 -0.207751 0.074237 
2401 0.039111 0.00191757 0.0154564 0.395262 -4.24716 -0.0100442 -0.952412 0.86669 
3202 0.0622294 0.00151315 0.0477497 0.35927 -4.36649 -0.215845 0.472461 -0.318486 
3200 0.0140828 0.00094235 0.0442732 0.339707 -4.29351 0.743299 0.443148 0.00479791 
1603 0.0864478 0.0260307 0.988567 0.384437 -4.29456 -0.425431 0.201545 0.168088 
1644 0.109467 0.0511128 0.987554 0.788178 -4.19608 -0.359501 -0.621469 0.549513 
2404 0.107467 0.0277766 0.016388 0.762986 -4.22524 0.456702 -0.234513 1.12935 
2443 0.0848899 0.0533869 0.0182733 0.524494 -4.27374 0.307815 -0.131261 -0.80649 
3203 0.0851689 0.0289282 0.0474325 0.164931 -4.32394 0.14259 -0.413224 -0.0302579 
3244 0.107662 0.0543851 0.0448189 0.369573 -4.31942 0.619348 -0.300128 -0.121621 
1604 0.107648 -0.000243832 0.990386 0.676027 -4.32832 0.540775 -0.053204 0.711428 
3204 0.108552 0.00360049 0.048481 0.36884 -4.34445 -0.45771 -0.258453 -0.629811 
1605 0.132438 0.0246505 0.993576 4.87701 -4.18331 -0.216219 0.737061 -1.00287 
2406 0.156647 0.0274061 0.0171598 0.645238 -4.32437 0.453444 0.985846 -0.209855 
2445 0.134363 0.0555321 0.0151767 1.49867 -4.34149 -0.402278 -0.520576 -0.506412 
3205 0.131973 0.0290643 0.0449965 0.412382 -4.41852 -0.257559 0.0771708 0.228086 
3246 0.154785 0.0543094 0.0457356 0.173321 -4.30868 0.096198 -0.232884 0.42957 
1606 0.157384 0.000403779 0.992381 0.808177 -4.23783 -0.980248 0.0189521 -0.249159 
2405 0.133275 0.00254674 0.019787 0.476632 -4.1774 -1.26064 -1.2155 0.127249 
3206 0.154667 0.00335015 0.0466689 0.454493 -4.33184 0.210741 0.165209 0.789333 
2447 0.179216 0.0542962 0.017495 0.303801 -4.30909 0.0377931 0.407127 -0.0199773 
3207 0.178003 0.0279759 0.0486209 0.235437 -4.33667 -0.288461 0.682533 -0.307755 
2408 0.201965 0.0318005 0.0204047 0.774318 -4.29931 0.0241115 -1.284 -0.348021 
3248 0.200911 0.0546287 0.0526194 0.730457 -4.27 -0.438619 -0.46482 -1.40333 
2407 0.179651 0.00382725 0.0183208 0.382227 -4.35452 0.719735 0.3841 0.511433 
3208 0.201194 0.00482452 0.0508151 0.245456 -4.34195 0.137667 -0.81119 -0.67413 
2449 0.223089 0.0554798 0.0220085 0.735186 -4.29622 1.49089 -0.136333 0.0899224 
3209 0.223064 0.0298822 0.0519525 0.115987 -4.3646 0.322954 -0.418086 -0.14278 
2410 0.247757 0.0302568 0.0232179 0.224898 -4.36127 -0.575381 -0.0598494 0.0742692 
2451 0.270357 0.0545635 0.0274946 1.05567 -4.26106 0.0443317 -0.315405 -0.604518 
2411 0.26985 0.00399233 0.0268508 0.499807 -4.31655 0.155547 -0.230963 -0.445905 
3211 0.269696 0.0284475 0.0566574 0.765496 -4.32687 0.0371512 0.490208 -0.404784 
3250 0.245756 0.0548125 0.053033 0.408851 -4.31557 0.467635 -0.300782 0.0689598 
2409 0.225208 0.00331852 0.0205333 0.373608 -4.33296 0.00432631 0.832552 0.142811 
3210 0.246131 0.00542919 0.0533123 0.605142 -4.339 0.138185 -0.595807 0.340484 
1613 0.318687 0.0275463 0.00438624 4.66061 -4.20285 0.363642 -0.168769 0.0691855 
2412 0.2931 0.0282575 0.0284192 1.22461 -4.21573 0.239779 -0.165293 -0.0452788 
2453 0.322258 0.057348 0.0221285 4.59099 -4.33669 0.46325 -0.185617 0.599269 
3213 0.319675 0.0302918 0.0540899 0.873894 -4.35948 0.0699895 -0.120543 -0.011637 
3252 0.296094 0.0539665 0.0522738 0.961095 -4.35458 0.0980723 0.506045 0.0269339 
2413 0.318994 0.00266634 0.0295523 0.645097 -4.29481 -0.0457297 -0.294312 0.336818 
3212 0.293554 0.0041029 0.0551438 0.586435 -4.30629 0.761934 -0.32505 0.604445 
2414 0.345673 0.0283278 0.027591 4.33221 -4.312 -0.0590509 0.926304 -0.243766 
3254 0.344794 0.0549768 0.0564626 0.335418 -4.31185 -0.6149 -0.312042 0.349834 
2455 0.369584 0.0560075 0.0297774 0.264123 -4.30518 -0.37615 -0.640192 -0.22404 
3215 0.368005 0.0291087 0.0612053 0.493342 -4.33678 -0.282671 -0.195738 -0.551837 
1614 0.343744 0.000889855 0.00344039 1.69434 -4.26001 0.0589312 0.139002 -0.314891 
3214 0.343124 0.00411399 0.058902 0.338902 -4.3221 -0.110005 -0.417049 -0.471892 
2415 0.368007 0.00436984 0.0310418 0.338052 -4.33175 0.0713965 -0.487641 -0.016271 
2416 0.391961 0.029104 0.0303277 0.389452 -4.32219 -0.0592801 0.491422 0.775556 
3256 0.389834 0.0544458 0.0628744 0.274773 -4.33289 0.152566 -0.921112 0.241747 
2457 0.414543 0.0548194 0.0363769 0.297568 -4.3308 -0.0359334 -0.620802 -0.385582 
3217 0.412309 0.0266176 0.0634343 0.413311 -4.33227 0.00825551 0.420979 0.444426 
3216 0.391048 0.00224135 0.0609948 0.462578 -4.32635 -0.732172 0.0623771 0.316555 
2417 0.415306 0.00262394 0.0320262 0.721451 -4.32032 -0.340796 -0.0226188 0.958684 
2418 0.437722 0.0269937 0.0396182 0.319772 -4.29494 -0.231438 0.0615373 -0.291658 
3258 0.43583 0.0522108 0.0676187 0.207744 -4.36339 -0.156898 0.0324262 0.092073 
1619 0.462202 0.0275675 0.0138064 0.478447 -4.36343 0.363079 0.148209 -0.471936 
1660 0.484403 0.054044 0.0176079 5.21601 -4.07549 -0.0316159 0.13224 -0.530257 
2420 0.48456 0.0264657 0.0440697 0.432471 -4.35285 -0.772409 0.226826 0.577787 
2459 0.459898 0.0530628 0.0407289 0.245544 -4.26988 0.0442267 0.184716 0.590366 
3219 0.458557 0.0260102 0.0712662 0.282501 -4.36887 0.304574 -0.10682 -0.417389 
3260 0.480255 0.0524526 0.0708662 0.88085 -4.31063 0.302718 0.0115646 0.411313 
3218 0.436475 0.000343892 0.0670651 0.37599 -4.35658 -0.691746 0.652569 -0.398073 
1620 0.487049 0.00382674 0.0136242 0.682752 -4.33328 0.193771 -1.12123 0.623887 
2419 0.46232 0.000706974 0.0403201 0.486238 -4.36357 -0.0734838 0.561559 0.318588 
3220 0.482822 1.00129 0.0733649 0.264942 -4.35157 0.454668 -0.0202499 0.322968 
1621 0.508687 0.0292127 0.0218506 4.49238 -4.09324 0.96095 0.509784 -0.176213 
2461 0.504849 0.0551463 0.048766 4.27735 -4.0832 0.903699 -0.781379 -0.601281 
3221 0.506678 0.0259803 0.07532 0.499746 -4.35049 -0.410583 0.19402 -0.252248 
1662 0.554181 0.0326759 0.0182081 1.70062 -4.28902 -1.00807 -0.207351 -0.152577 
2422 0.53113 0.0258901 0.0487537 1.30604 -4.18559 -0.18516 1.04483 -0.429159 
3262 0.549577 0.0537543 0.0482777 1.49423 -4.23859 0.846062 0.12005 1.30242 
3222 0.530159 0.000619102 0.0754794 0.250724 -4.34683 0.401757 0.104227 0.304449 
2421 0.508475 0.00157831 0.0454243 0.293007 -4.3505 0.212416 -0.197132 -0.136865 
1622 0.536907 0.00204691 0.0204992 5.4809 -4.10878 -1.23104 0.602807 -1.1974 
1623 0.573948 0.00876948 0.0129954 4.14978 -4.0872 -0.402708 -0.279607 0.116408 
2463 0.576206 0.0562816 0.0244522 0.833126 -4.31808 -0.206589 -0.451798 -0.446386 
3223 0.576336 0.0289362 0.0518283 1.28826 -4.26716 -1.24055 0.146091 -0.804414 
1664 0.600338 0.0538026 -0.005335 1.41284 -4.20182 0.768158 0.486546 0.61356 
2424 0.597221 0.0286167 0.0224374 1.30371 -4.3296 0.854044 -0.610736 -0.253028 
2423 0.556071 1.00291 0.0472782 1.28736 -4.15455 0.780345 -0.120252 1.13995 
1624 0.594489 0.987495 0.00954462 7.41165 -4.02431 0.0956312 -1.18912 -0.454626 
3264 0.599755 0.0524893 0.054169 1.29759 -4.33466 -0.459784 0.160638 0.671083 
1625 0.622578 0.0251265 -0.00463135 4.79252 -4.25881 -0.648716 0.613202 0.179109 
2465 0.622462 0.0499941 0.0268695 0.43814 -4.30451 -0.125483 0.324276 0.0477349 
3225 0.618994 0.0221844 0.0547494 1.40386 -4.34567 0.543815 1.09617 0.40243 
1666 0.647579 0.0513427 0.00328202 0.567823 -4.32607 0.213604 -0.29772 -0.203674 
2426 0.643518 0.0224408 0.0270585 0.847423 -4.39214 0.599602 0.247074 -0.127169 
1626 0.642039 0.997135 0.994597 4.23742 -4.18564 0.139387 -0.567211 -0.409335 
1627 0.672348 0.0236166 0.00610602 1.81596 -4.18429 -0.685965 0.437292 -0.00323202 
1668 0.6943 0.0473267 0.01027 0.822783 -4.28102 -0.524294 0.538922 0.0129762 
2428 0.69132 0.0217458 0.0397408 1.76247 -4.17521 -0.446871 -0.708031 -1.42184 
2467 0.667579 0.0470561 0.0346516 0.369062 -4.31638 -0.0232459 0.517904 -0.285682 
1629 0.714968 0.0234869 0.0104139 0.60834 -4.31756 0.810433 -0.695817 0.265855 
2469 0.711205 0.0469049 0.0436459 0.917895 -4.31985 1.17188 -0.092407 0.0323953 
1628 0.694743 0.999064 0.00670237 4.71297 -4.01058 -0.548806 -0.695202 0.895685 
2427 0.665681 0.996305 0.0246486 4.50927 -4.32696 -0.546924 -0.0375817 0.386551 
1670 0.737823 0.0469666 0.0165649 0.549453 -4.32756 0.35198 0.760446 0.755408 
2430 0.760056 0.0223425 0.0186548 0.559098 -4.33347 0.686668 0.676478 -0.0321438 
3229 0.734457 0.0202659 0.0442082 1.20885 -4.27885 0.268049 0.916041 0.405137 
3270 0.759993 0.0480714 0.0485268 0.268822 -4.29258 0.12905 -0.391481 -0.250283 
2429 0.738502 0.997566 0.01143 0.384191 -4.37656 -0.532796 -0.428002 0.27529 
2432 0.807232 0.0251922 0.0270448 0.280401 -4.23476 1.07484 -0.376371 -1.01656 
2471 0.784545 0.0491388 0.0219292 0.209497 -4.37154 -0.308325 0.362721 -0.0736899 
3231 0.784242 0.0229226 0.050153 1.27965 -4.23489 -1.86899 0.683239 0.559769 
3232 0.831492 0.00027137 0.0311175 0.418497 -4.35429 -0.413102 0.258652 -0.255292 
3272 0.804937 0.049322 0.0556051 0.286698 -4.37605 -0.0847101 0.590738 0.604676 
2431 0.78262 0.998885 0.0193326 1.32817 -4.25626 0.981208 -0.0269897 1.05527 
2473 0.830963 0.0496731 0.0306401 0.131145 -4.36256 -0.224679 0.219089 -0.142775 
2434 0.879667 0.0254318 0.00306363 0.349866 -4.37605 -0.369037 0.0170051 0.266401 
2475 0.901852 0.0506165 0.00612722 0.192158 -4.40567 0.126595 0.295591 0.0564185 
3235 0.901293 0.0254896 0.036402 0.417592 -4.33615 0.0270801 0.140187 -0.448029 
3274 0.876447 0.0503569 0.0337399 0.186747 -4.38709 0.297056 -0.368189 0.243478 
3234 0.878259 1.00274 0.0330438 1.005 -4.30561 -0.451636 -0.998805 -0.0325787 
2435 0.90277 -0.000704038 0.00678465 0.655651 -4.30967 -0.464908 0.303118 -0.730072 
3233 0.852922 0.0248944 0.0324036 0.326085 -4.36072 0.3503 -0.054096 -0.244331 
2436 0.924613 0.0248881 0.00695738 0.417222 -4.29452 -0.416531 0.734396 0.80149 
2477 0.9459 0.0520963 0.0113394 0.594097 -4.30479 0.463893 0.15693 -0.260848 
3237 0.945784 0.0258911 0.0380251 0.203533 -4.37675 -0.210105 -0.030129 0.343083 
3276 0.923116 0.0534614 0.0388196 0.953942 -4.2619 0.0673754 -0.93359 -0.709783 
3236 0.923696 -0.000341134 0.0361259 0.425974 -4.31848 -0.303091 0.184036 0.870869 
2437 0.947871 0.000130991 0.0106011 0.277347 -4.36369 -0.14031 -0.2865 -0.484063 
1639 0.993524 0.0263502 0.985441 0.29787 -4.32477 0.427587 -0.261274 -0.643227 
2438 0.970063 0.025836 0.0110441 0.107965 -4.3127 -0.0994768 -0.0321512 0.579821 
2479 0.992342 0.0508509 0.0138232 0.197264 -4.34409 0.577211 0.481956 0.0641214 
3239 0.991069 0.0258099 0.0421171 0.229945 -4.3564 0.617848 0.536571 0.483333 
3278 0.967905 0.0518021 0.0398651 0.305973 -4.32969 0.146035 0.0738622 0.449687 
2439 0.994702 0.000765266 0.0128435 0.355483 -4.32933 -0.974659 -0.254747 -0.0548823 
3238 0.969482 0.000763021 0.0401761 0.0991394 -4.37327 0.130156 -0.107525 0.535256 
1641 0.0423899 0.076647 0.986083 0.885479 -4.30863 -1.3587 0.235352 -0.0508579 
1682 0.0641063 0.102605 0.986575 0.491906 -4.35258 -0.455634 0.267249 0.0286353 
2442 0.0618298 0.0763107 0.0165091 0.622441 -4.28029 0.28794 0.675436 0.428653 
2481 0.0398761 0.103267 0.0145721 0.297818 -4.30346 -0.769943 0.0462737 -0.571739 
2440 0.0154263 0.0775114 0.0126328 0.504362 -4.3248 0.561744 -0.286113 0.595078 
3241 0.0365023 0.0785228 0.0445958 0.562184 -4.30817 0.859115 -0.458743 -0.12443 
3280 0.0145806 0.100736 0.0447315 0.888833 -4.28499 -0.320882 1.15283 -1.10477 
1680 0.0169756 0.101747 0.98452 0.301454 -4.27714 0.458771 0.611905 -0.44787 
3282 0.0611729 0.103432 0.0420942 0.543349 -4.3162 0.299739 -0.0533912 0.693515 
1643 0.0851233 0.0774555 0.98704 0.780603 -4.19074 -0.333931 -0.500252 0.920216 
2444 0.110635 0.0786959 0.0119301 1.42994 -4.38148 -0.110216 0.308365 0.474705 
2483 0.08726 0.103435 0.0149662 0.708759 -4.28131 -0.0774656 0.0591423 -1.06 
3243 0.0864822 0.0796947 0.0442677 0.82467 -4.34163 -0.614839 -0.0762471 -0.013167 
3284 0.109196 0.104602 0.0454084 0.36279 -4.30304 -0.483906 -0.350395 -0.50341 
2446 0.155593 0.0816266 0.0141168 0.886409 -4.29214 0.699225 -0.828297 0.433229 
2485 0.133503 0.104665 0.0151182 0.206154 -4.33827 -0.660463 0.200313 -0.015259 
3245 0.131009 0.0792632 0.0465673 0.345486 -4.35646 0.392274 0.242806 -0.504904 
3286 0.155223 0.103856 0.0466598 0.266969 -4.3633 -0.456615 0.0147387 0.330141 
3247 0.177151 0.0780457 0.0473154 0.477686 -4.33877 0.220809 0.760133 0.0827176 
2487 0.179611 0.106118 0.0190204 0.24966 -4.35872 -0.0570658 -0.450341 -0.553208 
2448 0.20301 0.0795826 0.0205279 0.404512 -4.33651 -1.01766 0.572446 -0.330725 
3288 0.200958 0.105142 0.0502176 0.196572 -4.35656 -0.470343 -0.183215 0.219183 
2489 0.223922 0.104914 0.0208673 0.854019 -4.34487 0.828544 0.679703 0.430532 
3249 0.223882 0.0799566 0.0519884 0.186198 -4.35484 0.238517 0.33971 -0.0367919 
2450 0.248691 0.079979 0.0235358 0.23739 -4.34556 -0.363275 0.509679 0.409666 
2491 0.273231 0.106647 0.023166 0.55594 -4.29274 0.390685 -0.653263 0.100975 
3251 0.27278 0.0796299 0.0524734 0.289333 -4.33146 -0.120465 0.368929 0.000361257 
3290 0.248796 0.10521 0.0525899 0.183864 -4.34222 -0.487031 -0.540045 -0.148961 
2452 0.297899 0.0814738 0.0224783 3.48814 -4.38906 0.125634 0.0707895 0.154814 
2493 0.322889 0.103857 0.024453 0.368655 -4.32104 -0.116097 0.574285 0.443909 
3253 0.319655 0.0788539 0.0560852 0.368641 -4.32488 0.769643 0.256984 -0.534126 
3292 0.296983 0.103789 0.05528 0.214407 -4.32251 0.16268 0.135007 -0.225797 
2454 0.34676 0.0815633 0.0274 0.163263 -4.32161 0.00278627 -0.484213 0.0657484 
3294 0.344273 0.104315 0.0580158 0.177945 -4.35622 -0.110045 -0.0591581 0.106515 
2495 0.3698 0.105258 0.0317671 0.157572 -4.36255 0.435252 -0.236973 -0.323801 
3255 0.367529 0.0790698 0.0615832 0.133414 -4.32529 -0.335602 0.0332317 -0.618894 
2456 0.392116 0.0787339 0.0331235 0.441832 -4.36963 0.274557 1.04152 0.0944701 
3296 0.390022 0.104362 0.0646714 0.113427 -4.3511 0.0884757 -0.393989 -0.025189 
2497 0.414599 0.105957 0.039376 0.848133 -4.27604 0.666365 -0.573682 -1.15164 
3257 0.412683 0.0791825 0.0668304 0.181054 -4.33159 0.251833 -0.348853 0.203861 
2458 0.436718 0.079836 0.0416439 0.70756 -4.25983 0.0765732 0.233474 -1.14031 
3298 0.436931 0.104299 0.0705529 0.165202 -4.33975 -0.00388497 -0.0437662 -0.0830762 
2460 0.483921 0.0802135 0.0410719 4.49559 -4.13463 -0.196729 -0.0991872 0.661039 
2499 0.461704 0.10521 0.0409244 0.400432 -4.33448 -0.667273 0.337354 -0.0673349 
3259 0.457714 0.0782588 0.0710882 0.30471 -4.33855 0.872812 0.0701643 -0.47599 
3300 0.505545 0.104866 0.0451073 5.07961 -4.16859 0.0507087 -0.00929112 0.586037 
1661 0.529212 0.0573256 0.0199659 5.387 -4.07552 -0.492467 -0.292719 -0.485719 
2501 0.530674 0.106853 0.0198098 4.00606 -4.10436 -0.0242097 0.288774 -0.347673 
3261 0.527433 0.0807677 0.0488248 5.05271 -4.21243 0.300439 0.00762326 -0.0542776 
1702 0.554161 0.106287 0.990133 4.36401 -4.36894 0.204502 -0.259742 0.285079 
2462 0.552928 0.0812393 0.0223807 0.476578 -4.3438 0.0922252 -0.313752 -0.336803 
3302 0.550682 0.105628 0.050858 0.634938 -4.29833 0.557065 -0.489737 1.04573 
1663 0.576951 0.0801607 0.994225 0.475793 -4.31477 -0.24801 -0.274374 -0.000239452 
2503 0.576137 0.104447 0.0257203 0.211156 -4.35178 0.304287 -0.774264 0.0754994 
1704 0.600481 0.102704 -0.00328274 0.479828 -4.29362 0.326865 -0.0841741 0.896028 
2464 0.599804 0.077997 0.0269454 0.187714 -4.34876 0.0613911 -0.0367907 0.0281711 
3304 0.597585 0.10131 0.0587477 0.31232 -4.34006 0.43531 0.403341 -0.120136 
3263 0.573364 0.0774485 0.0559267 0.870603 -4.25468 0.591144 0.713806 -1.00252 
1665 0.62594 0.0781361 0.00016207 0.674045 -4.32277 -0.905648 -0.323018 -0.0369418 
2505 0.621264 0.101853 0.0309673 0.736793 -4.29904 0.674106 -0.151791 0.486733 
1706 0.647024 0.100934 0.00598212 0.38081 -4.32241 0.589017 0.182501 -0.257678 
2466 0.644454 0.0751426 0.0341521 0.407943 -4.29604 0.151029 0.0369709 -0.319602 
3306 0.644042 0.0991635 0.0653784 0.220127 -4.31217 0.177932 0.614279 -0.436176 
3265 0.622693 0.0764054 0.0627435 1.45706 -4.21426 -1.36297 -0.458021 -1.18609 
1667 0.669758 0.0767017 0.00790961 0.71323 -4.31154 -0.349524 -0.775976 0.213196 
1708 0.69371 0.100033 0.0152076 0.578521 -4.27294 -0.0923131 0.295268 -0.845806 
2468 0.689984 0.0732763 0.03838 0.49694 -4.29499 -0.587482 -0.364706 0.741541 
2507 0.668157 0.10098 0.0374876 0.513279 -4.27405 -0.594425 -0.807775 0.0541166 
1669 0.715138 0.0758585 0.0178467 1.37135 -4.22424 0.899057 -1.80587 -0.763205 
3308 0.714779 0.0985411 0.0456962 0.524485 -4.25618 -0.725568 0.372417 0.733927 
2470 0.759983 0.0744656 0.0213753 0.335884 -4.31969 0.429686 -0.310598 -0.843722 
2509 0.736592 0.0996632 0.0194307 0.503846 -4.28343 1.39535 0.285988 -0.499362 
3269 0.736826 0.0726484 0.0481263 0.55341 -4.32909 -0.576494 0.0837737 -0.0743489 
3310 0.757655 0.0979861 0.0505929 0.557066 -4.35229 0.297868 0.505152 0.169929 
2472 0.807792 0.0761119 0.0264009 0.468532 -4.31937 0.146864 -0.650128 0.43116 
2511 0.783233 0.100041 0.0249293 0.355663 -4.31653 0.331827 0.0597601 -0.230011 
3271 0.782188 0.0745805 0.0510763 0.764155 -4.36071 -0.0919871 -0.359386 0.629495 
3312 0.831769 0.0984792 0.0305254 0.584985 -4.32412 -1.07412 0.693451 0.313199 
2513 0.855158 0.101499 0.00296395 0.415983 -4.31885 0.254612 -0.783653 -0.71316 
3273 0.854524 0.0748663 0.0332669 0.151601 -4.38817 -0.00229221 0.149357 -0.145525 
2474 0.878397 0.0759033 0.00409877 0.114905 -4.33258 -0.230438 -0.122207 0.272562 
2515 0.900863 0.101508 0.00590752 0.158989 -4.33714 -0.010785 -0.0899893 0.669028 
3275 0.898312 0.0766249 0.0361866 0.573225 -4.32364 0.662007 -0.227136 -0.316625 
3314 0.876576 0.102014 0.0337421 0.274414 -4.38801 0.0108225 -0.237527 0.11234 
2476 0.923643 0.0784105 0.00877697 0.648045 -4.33881 -0.245013 -1.11864 -0.319623 
2517 0.945514 0.101209 0.00639973 1.43584 -4.27912 1.19718 1.11032 1.03682 
3277 0.94788 0.0793521 0.0383924 1.80449 -4.26012 -1.15357 -1.21762 0.250908 
3316 0.923123 0.100954 0.0384022 0.482882 -4.28619 -0.478415 0.602029 -0.834249 
2478 0.971235 0.0777672 0.012696 0.73634 -4.2779 -0.451682 -0.591769 -0.676291 
2519 0.992645 0.101457 0.0104582 0.525627 -4.22965 0.598363 0.80501 1.05406 
3279 0.99186 0.0769021 0.0428936 0.23533 -4.3742 -0.108983 0.00538052 -0.107348 
3318 0.968531 0.103054 0.039832 0.326505 -4.33724 0.205163 0.0756138 -0.00230738 
2482 0.0630775 0.129947 0.0114759 0.71674 -4.3317 -0.442536 -0.447996 0.167887 
2521 0.0388467 0.154612 0.0107411 0.447596 -4.34071 0.173056 -0.321561 0.198404 
3281 0.038272 0.129346 0.0429542 0.428315 -4.34737 0.266171 -0.462856 -0.345291 
3322 0.062128 0.152929 0.0443787 0.409177 -4.35812 -0.468197 -0.0569183 -0.187938 
3320 0.0133055 0.153155 0.0415399 0.387701 -4.3301 0.0739575 -0.0968549 -0.599286 
2480 0.0169839 0.128917 0.0128094 0.61256 -4.31215 -0.538066 -0.560008 -0.39036 
2484 0.109296 0.130009 0.0133121 0.253054 -4.33288 0.1242 -0.695772 0.281662 
2523 0.0858025 0.152476 0.0145372 0.387126 -4.3054 0.185688 0.841318 -0.894102 
3283 0.0838409 0.127635 0.0411491 1.1392 -4.27977 0.674293 -0.000290349 1.6915 
3324 0.107637 0.152395 0.0449023 0.208201 -4.36435 0.125123 0.14963 0.608152 
2486 0.155308 0.129865 0.0180573 0.161474 -4.3874 -0.20935 0.153973 -0.556136 
2525 0.132074 0.155516 0.0150511 0.481106 -4.33995 -0.14076 -0.701221 0.82826 
3285 0.130762 0.128922 0.0464527 0.146719 -4.35302 0.447091 0.300344 -0.281712 
3326 0.154178 0.153841 0.0484011 0.0998293 -4.38011 -0.346098 -0.275353 0.340556 
2527 0.177553 0.154614 0.0191044 0.174645 -4.34523 0.678369 0.350958 -0.256964 
3287 0.176727 0.129264 0.0487325 0.219826 -4.34133 0.263641 0.204767 0.526394 
2488 0.201877 0.130929 0.0198661 0.118324 -4.36597 0.22365 0.0956166 0.155277 
3328 0.200924 0.153625 0.0504539 0.189686 -4.31441 -0.28899 0.478551 0.315112 
2529 0.224614 0.155247 0.023086 0.606191 -4.29699 0.664272 -0.599951 -0.325525 
3289 0.225565 0.129084 0.0533544 0.478865 -4.33545 -0.33598 0.567569 -0.9265 
2490 0.249483 0.129567 0.024274 0.327691 -4.33256 -0.184876 0.410294 -0.358345 
2531 0.274844 0.153348 0.0250626 0.174786 -4.31096 0.84288 0.219398 -0.0309875 
3291 0.273424 0.1286 0.0533212 0.242515 -4.34685 0.119206 0.447765 0.615084 
3330 0.251106 0.154695 0.0528598 1.18634 -4.3107 -1.12364 -0.786374 0.298818 
2492 0.298575 0.12676 0.0242963 0.901373 -4.3081 0.0471048 1.01755 -0.0210853 
2533 0.322677 0.152658 0.0254856 0.643398 -4.32477 0.319581 0.303826 0.336071 
3293 0.320122 0.128277 0.0560067 0.226951 -4.34663 0.0667218 -0.0634353 0.242499 
3332 0.296882 0.153193 0.0558516 0.274384 -4.34579 0.425597 -0.619071 0.0724947 
2494 0.347757 0.129286 0.0281487 0.348109 -4.3695 -0.808858 0.190115 -0.0115034 
3334 0.343833 0.152668 0.0587722 0.255662 -4.36754 -0.113232 0.114747 0.377635 
2535 0.369285 0.154443 0.0326782 0.309784 -4.34273 0.951551 0.126278 -0.441195 
3295 0.368379 0.129803 0.0618805 0.314637 -4.33576 -0.666644 -0.681308 0.104701 
2496 0.39255 0.129614 0.0364075 0.44997 -4.30155 0.343075 0.596447 -0.893386 
3336 0.39029 0.154108 0.066437 0.345161 -4.32188 0.519843 -0.317366 -0.581755 
2537 0.414696 0.155748 0.0380255 0.632818 -4.33834 0.426642 -0.522372 0.218988 
3297 0.413889 0.12835 0.0686179 0.35428 -4.29996 0.313244 0.820376 0.0284252 
1738 0.44093 0.156216 0.011944 0.883522 -4.35037 -0.079432 0.388463 -0.795853 
2498 0.438579 0.131259 0.039614 0.205698 -4.31337 -0.157734 -0.510214 0.303621 
2538 0.440049 0.181361 0.0394763 0.533517 -4.29524 -0.441712 -0.188493 0.848113 
3338 0.438807 0.15638 0.0671994 1.69838 -4.29528 -0.588103 -1.04788 0.415127 
1740 0.485739 0.156283 0.0130011 0.479758 -4.3144 0.840182 -0.189038 -0.636849 
2500 0.484067 0.130927 0.0434215 0.352765 -4.36198 -0.134249 -0.985644 -0.135319 
2539 0.464177 0.156353 0.0408056 1.07992 -4.24697 -1.56824 -0.753711 0.412163 
2540 0.509069 0.179515 0.016013 0.902844 -4.21951 -0.303238 0.188561 0.283537 
3299 0.459789 0.128768 0.0723719 0.219572 -4.3381 -0.0783411 0.136946 -0.664272 
3339 0.484273 0.179147 0.0436494 0.477558 -4.26648 0.685228 1.11685 0.383659 
3340 0.506672 0.153609 0.0469367 0.236753 -4.36392 -0.279715 0.561156 -0.181367 
2541 0.532469 0.154181 0.0200241 1.41523 -4.36593 -0.191726 0.117851 0.386871 
3301 0.528563 0.131327 0.0505073 0.736201 -4.32725 0.326254 -0.994238 0.118262 
3341 0.528961 0.176926 0.052475 0.733409 -4.32387 -1.03979 0.866143 0.30591 
1742 0.558443 0.163031 0.99714 8.51363 -3.90401 -0.473082 0.422804 -0.442206 
2502 0.554605 0.12941 0.0230665 1.78911 -4.27476 -0.180824 0.547959 0.335107 
2542 0.553107 0.18137 0.0302344 1.54656 -4.24407 0.389643 -0.285719 -0.416515 
3342 0.551362 0.154431 0.0552966 0.497412 -4.30859 0.45145 -1.12518 -0.185681 
1703 0.57818 0.12794 -0.00362952 5.21953 -4.24741 -0.444853 0.140032 0.48735 
1743 0.581583 0.182401 1.00465 4.58114 -4.19268 -0.349291 0.0701967 0.176854 
2543 0.575248 0.154777 0.0280837 1.5231 -4.37987 1.25853 -0.603452 -0.218198 
3303 0.576288 0.12864 0.0565488 0.345243 -4.32659 -0.626313 0.0297747 -0.0576326 
3343 0.575077 0.176909 0.059284 0.445293 -4.31524 0.835157 0.461249 0.0396239 
1744 0.604351 0.153764 0.00415616 0.769602 -4.25383 -0.226328 -0.736925 0.412112 
2504 0.599504 0.1277 0.0290905 0.393804 -4.31836 0.291746 -0.369569 -0.533668 
2544 0.601991 0.1785 0.0346154 0.477936 -4.3 -0.456232 -0.594115 0.0587714 
3344 0.599786 0.150792 0.057441 1.35184 -4.29913 -0.278965 0.892557 1.17739 
1705 0.625912 0.125281 0.00254166 0.750054 -4.34584 -0.451615 0.968107 0.463841 
1745 0.626433 0.177019 0.00617319 0.424694 -4.28507 0.44406 0.531618 0.637711 
2545 0.624811 0.151778 0.0335484 0.404479 -4.32492 0.469457 -0.453292 0.665891 
1746 0.648439 0.151592 0.00606643 0.296234 -4.32923 0.168729 -0.172485 1.06614 
2506 0.647337 0.125285 0.0371647 0.409248 -4.3585 -0.51908 0.26356 -0.577306 
2546 0.647457 0.175705 0.0387514 0.156675 -4.37769 0.365627 -0.220535 0.18704 
3305 0.62243 0.125272 0.0620792 0.162228 -4.3754 -0.298424 0.0310639 0.0868778 
1747 0.671642 0.175782 0.0105413 0.459395 -4.28653 -1.0506 0.716688 0.428783 
2547 0.66982 0.149336 0.0402573 0.35668 -4.29238 -0.51477 0.42727 0.0298628 
3345 0.624209 0.174139 0.0684817 1.27254 -4.23684 -0.575162 0.796054 -1.10084 
1707 0.670319 0.126356 0.00697366 1.33629 -4.2893 0.381075 -0.166106 1.38441 
1748 0.6918 0.152775 0.0145344 1.04432 -4.24359 1.23817 -1.26692 -0.0863509 
2508 0.68958 0.123353 0.0417877 1.18966 -4.25431 0.98988 1.27744 -0.185627 
2548 0.69015 0.176621 0.0438323 0.982204 -4.27858 1.14929 -0.371248 -0.000759115 
1709 0.716593 0.125815 0.0200234 1.31714 -4.31155 -0.589317 -0.0380435 -0.551869 
1749 0.716373 0.174984 0.0163294 0.192841 -4.3172 0.248072 0.379679 -0.275538 
2549 0.713265 0.151179 0.0458039 0.507783 -4.27874 0.0711014 -0.257006 -0.528219 
1750 0.738764 0.149589 0.018571 0.12028 -4.37136 0.0592163 0.0358108 0.126538 
2510 0.761361 0.124348 0.0205666 0.247936 -4.37149 0.00804089 -0.0472146 0.307284 
2550 0.738175 0.173373 0.0483811 0.393099 -4.31562 -0.241068 0.605108 -0.738618 
1751 0.761839 0.173718 0.0207815 0.172919 -4.3531 -0.166667 0.32263 0.0500415 
3309 0.737781 0.12429 0.0496296 0.701931 -4.31295 -0.270006 0.103557 -0.210072 
3350 0.760123 0.148055 0.051383 0.25974 -4.34128 0.110474 0.131805 -0.135554 
2512 0.831775 0.124176 -3.39533e-05 0.273344 -4.33834 -0.0473303 0.527308 -0.427954 
2551 0.783785 0.150427 0.0241975 0.351833 -4.35106 0.581722 -0.800043 -0.00113024 
2552 0.808161 0.175077 0.0249996 0.749703 -4.35702 -0.516942 -0.805102 0.301081 
3311 0.806238 0.124243 0.0286285 0.283643 -4.34191 0.367505 -0.319361 -0.296387 
3351 0.783085 0.174704 0.053238 0.362832 -4.3545 -0.136159 -0.443844 0.61744 
3352 0.804766 0.149538 0.0586665 0.327402 -4.33908 -0.535192 -0.316426 -0.483058 
2553 0.829149 0.148842 0.0293672 0.260077 -4.37065 0.223359 0.367537 -0.019847 
3313 0.852117 0.12435 0.0316551 0.315365 -4.32189 0.255836 0.688055 0.518004 
2514 0.878226 0.127378 0.00444642 0.55032 -4.32981 -0.312609 -0.692858 -0.202913 
2554 0.877159 0.177 0.00320714 0.287336 -4.38689 -0.0774872 -0.344695 0.591715 
2555 0.898942 0.151656 0.00621346 0.709285 -4.36626 0.689675 0.12969 0.213545 
3315 0.89937 0.126781 0.0379919 0.671876 -4.3393 -0.0388169 -0.479137 -1.04393 
3354 0.873452 0.150221 0.034161 0.859985 -4.3208 0.780272 0.426248 0.27794 
3355 0.898677 0.175675 0.0369112 0.629676 -4.32931 0.171179 0.488578 -0.865979 
2516 0.92321 0.125957 0.0079413 0.265303 -4.35305 0.0174307 0.0763364 -0.139847 
2557 0.946495 0.153338 0.00785764 0.329714 -4.36951 0.321133 -0.0581042 -0.494137 
3317 0.945957 0.127825 0.0364753 0.411956 -4.33732 -0.266491 -0.588241 0.69263 
3356 0.92329 0.151375 0.0349859 0.462439 -4.34143 -0.328883 0.405826 0.536925 
3357 0.946137 0.178376 0.0361833 0.539624 -4.32912 -0.318746 -0.615723 0.964665 
2518 0.968854 0.12903 0.00953427 0.728433 -4.30301 0.265808 -1.06487 -0.427231 
2559 0.99149 0.152345 0.00935698 0.375144 -4.34195 0.230093 0.0551231 0.422566 
3319 0.991554 0.126042 0.0386041 0.849641 -4.33336 0.195031 0.385992 0.830812 
3358 0.968522 0.152431 0.0403881 0.352377 -4.36599 0.182131 0.059539 -0.574062 
2522 0.063583 0.177518 0.0135921 0.370686 -4.36001 -0.395419 -0.204369 -0.327162 
3321 0.0368004 0.175982 0.0411224 0.699691 -4.34005 0.230316 0.480519 0.87843 
2520 0.012911 0.178203 0.0103733 1.08168 -4.3118 1.36404 0.0643432 0.214701 
2561 0.039063 0.200994 0.0144453 0.498475 -4.36999 -0.115314 0.287317 -0.766627 
2562 0.0615155 0.226775 0.0165622 0.326806 -4.33975 -0.101041 -0.434547 -0.585602 
3361 0.0371932 0.225608 0.043923 0.146452 -4.3418 0.678937 0.456325 0.114259 
3362 0.0608207 0.201261 0.0456612 0.196159 -4.34112 0.286779 -0.0180326 -0.309917 
3360 0.0142788 0.202824 0.043212 0.586177 -4.31008 -0.253409 -1.21238 -0.776386 
2560 0.0153428 0.22615 0.0128789 0.300693 -4.36788 0.454723 0.397339 -0.430316 
2524 0.108378 0.178112 0.0169227 0.282132 -4.38869 -0.0253323 0.101369 -0.63217 
3323 0.0840623 0.177323 0.0455816 0.110764 -4.32994 0.424762 0.313764 0.161183 
2563 0.0852541 0.201943 0.0142599 0.211245 -4.33971 0.0406511 0.170296 0.436866 
2564 0.108413 0.226572 0.0177118 0.177687 -4.36109 -0.360143 0.296429 -0.55158 
3363 0.0829308 0.22647 0.0475334 0.222698 -4.34972 0.807426 -0.257867 -0.202124 
3364 0.10754 0.202795 0.0466869 0.26651 -4.34405 -0.436648 -0.254547 0.535931 
2526 0.154409 0.177842 0.0176593 0.495705 -4.3027 -0.0379962 1.13295 0.716441 
3325 0.130721 0.177459 0.0498868 0.485014 -4.3626 -0.368063 0.402498 -0.746841 
1765 0.134091 0.229451 0.988453 0.466202 -4.35791 -0.741304 -0.0296303 -0.534242 
2565 0.13157 0.203039 0.0179702 0.16644 -4.36945 -0.0590603 -0.334353 -0.0513242 
2566 0.152899 0.228578 0.0220101 0.731115 -4.31817 1.40243 -0.105021 0.0532976 
3365 0.129496 0.226762 0.0493472 0.153772 -4.3421 0.253169 0.232647 0.505261 
3366 0.153205 0.202997 0.0503761 0.18894 -4.35981 0.0644185 -0.0876839 -0.114257 
3327 0.176566 0.177367 0.0492488 0.541363 -4.32836 0.360766 0.6692 0.921947 
2528 0.201291 0.180428 0.0222344 0.418738 -4.30614 0.0970752 -1.0548 -0.84596 
2567 0.179231 0.203309 0.022948 0.630685 -4.32172 -0.883874 0.920653 -0.106913 
3367 0.178105 0.228336 0.0545234 0.361245 -4.3167 -0.29373 -0.340359 -0.836122 
2568 0.202419 0.229492 0.0242367 0.545488 -4.35542 0.372073 -0.554614 -0.0265664 
3368 0.20329 0.202185 0.0518608 0.999882 -4.27946 -1.03478 0.907721 1.18736 
3329 0.224147 0.177569 0.0524552 0.456017 -4.33803 0.475997 0.197978 0.743394 
2530 0.249958 0.177596 0.025089 0.368009 -4.28162 0.28067 1.16244 -0.101718 
3331 0.274721 0.177703 0.0568797 0.541623 -4.33769 -0.445694 0.399015 -0.708216 