ITEM: TIMESTEP
3500
ITEM: NUMBER OF ATOMS
28567
ITEM: BOX BOUNDS pp pp pp
-2.4618762239653265e+00 7.2861876223965623e+01
-7.6749059940242859e-01 7.1167490599402100e+01
6.1763437604597629e+00 6.4223656239540560e+01
ITEM: ATOMS id xs ys zs c_csym c_peratom fx fy fz 
1601 0.036502 0.0261997 0.98837 0.509714 -4.32196 0.651467 0.240712 -0.460545 
1642 0.0616548 0.0530092 0.993256 0.604479 -4.34645 -0.274896 -0.61974 -0.816386 
2402 0.0582139 0.0277295 0.0201723 1.02797 -4.28051 0.840687 0.181126 -0.712881 
2441 0.0343082 0.0527366 0.0164629 0.741263 -4.31305 0.927218 -0.309337 0.385533 
3201 0.0354933 0.0282193 0.0469694 0.310778 -4.29153 -0.480247 -0.0963505 -0.393749 
3242 0.0586409 0.0534633 0.046065 0.328681 -4.33301 0.214645 0.205228 -0.00269529 
2400 0.0129988 0.0258743 0.0152018 0.25569 -4.33911 -0.282837 0.364672 0.328709 
3240 0.0109518 0.0522697 0.0447467 0.269729 -4.34676 0.166706 0.0861731 -0.135477 
2401 0.0378847 0.00294044 0.0179512 0.673405 -4.27082 -0.878386 -0.939774 -0.294422 
3202 0.060309 0.00116581 0.0455885 0.612541 -4.30499 -0.369952 0.805882 0.702974 
3200 0.0123228 0.00328254 0.0450514 0.180817 -4.37063 -0.259027 -0.184986 -0.0858525 
1603 0.0855873 0.0272857 0.994329 0.501544 -4.36093 -0.0537872 0.232562 -0.1123 
1644 0.111717 0.0508626 0.993488 0.850649 -4.17207 -0.876081 0.641553 -0.715081 
2404 0.110552 0.0281597 0.01989 0.476666 -4.27817 -0.358986 -0.610621 0.681743 
2443 0.0849524 0.0531895 0.0218652 0.660843 -4.23935 0.232017 -0.0980541 -0.902044 
3203 0.0828168 0.0268763 0.0453249 0.736258 -4.34488 0.529883 0.201387 0.849585 
3244 0.108196 0.0530785 0.0483591 0.396283 -4.2718 0.437666 0.567297 -0.451059 
1604 0.110975 0.0033128 0.992008 0.232561 -4.32645 -0.0484321 -0.423851 0.387498 
3204 0.107811 0.00193952 0.0467216 0.564881 -4.31418 0.0260492 0.666604 0.923433 
1605 0.135839 0.0264087 0.990921 0.425615 -4.33102 0.597186 0.369507 0.515983 
2406 0.159161 0.0285406 0.0213103 0.161285 -4.35743 -0.453272 -0.14014 0.395418 
2445 0.13374 0.0534988 0.0189887 0.492519 -4.29321 1.11466 0.219116 0.333288 
3205 0.132522 0.0279429 0.0504342 0.232858 -4.3307 0.374726 0.28923 -0.157318 
3246 0.156712 0.0539457 0.0505305 0.184434 -4.32715 0.214601 -0.49103 -0.349619 
1606 0.160614 0.00218135 0.992348 0.648514 -4.27376 0.144249 1.13974 1.076 
2405 0.133907 0.00383888 0.0208718 0.255773 -4.32952 0.467669 -0.190157 0.189767 
3206 0.156714 0.0043583 0.0533739 0.231502 -4.32729 -0.0472358 0.11394 -0.416575 
2447 0.183095 0.0536157 0.0213459 0.312248 -4.32712 0.0630723 0.223907 0.563079 
3207 0.181905 0.0291471 0.0539543 0.137754 -4.32655 -0.121568 0.408611 -0.226094 
2408 0.206432 0.0293619 0.0272714 0.728201 -4.35062 0.619781 -0.202575 -0.619235 
3248 0.207759 0.0561501 0.0519875 1.32144 -4.28166 -0.904544 -0.86833 0.798972 
2407 0.182148 0.00439084 0.0260317 0.491296 -4.35517 0.625082 -0.226432 -0.669884 
3208 0.206347 0.00407257 0.0564897 0.387199 -4.2894 -0.162221 0.808068 -0.891705 
2449 0.231301 0.055773 0.0253401 0.265437 -4.33076 -0.106897 -0.133405 -0.280817 
3209 0.231018 0.0317555 0.0567097 1.13464 -4.26932 -0.701686 -1.46455 -0.367914 
2410 0.252253 0.0284948 0.0266206 0.431814 -4.32501 0.214163 0.261065 0.0356131 
2451 0.276826 0.0522025 0.0276647 0.36773 -4.36205 -0.185195 0.783556 -0.288052 
2411 0.2762 0.00458286 0.0268311 0.313141 -4.35351 -0.266058 -0.934598 0.472214 
3211 0.274363 0.0285775 0.0567083 0.675382 -4.36154 0.860185 -0.00310873 0.235261 
3250 0.252672 0.0551743 0.055769 0.552079 -4.36632 0.539319 -0.0176429 0.692769 
2409 0.230475 0.00247412 0.0254926 0.673336 -4.30632 -0.324307 0.466802 0.823884 
3210 0.253368 0.00369099 0.0584127 0.618058 -4.32345 -0.995627 -0.454986 -0.75114 
1613 0.325143 0.0284484 0.00257976 1.25195 -4.23322 -0.329102 -0.864348 -0.425879 
2412 0.300094 0.0284411 0.0294551 0.277009 -4.31976 0.135082 -0.0659931 -0.351898 
2453 0.32518 0.0544225 0.0275984 0.379323 -4.32248 0.395909 0.380328 0.0420985 
3213 0.323734 0.0271168 0.0584757 0.35328 -4.36471 0.429816 0.732096 0.241185 
3252 0.300153 0.052672 0.056557 0.346078 -4.3407 0.415392 0.658797 0.478123 
2413 0.323215 0.00236916 0.0292004 0.325857 -4.32178 0.43609 0.15091 -0.381695 
3212 0.299577 0.00355772 0.0561805 0.483197 -4.34491 -0.510736 -0.20517 1.0556 
2414 0.348422 0.0292057 0.0292777 0.406917 -4.32731 0.260373 -0.328087 -0.254151 
3254 0.347843 0.0532649 0.0594169 0.160823 -4.32834 -0.140438 0.197005 0.217617 
2455 0.371127 0.054884 0.0297821 0.689974 -4.30365 0.360338 -0.239825 -0.457836 
3215 0.370996 0.0286722 0.0617947 0.149419 -4.32486 0.324805 0.0252923 -0.214951 
1614 0.349899 0.000582873 0.00157104 1.69166 -4.18469 -1.02 1.27909 0.289025 
3214 0.347994 0.00454254 0.060238 0.264368 -4.35629 -0.568821 -0.279999 0.0645857 
2415 0.371945 0.0050201 0.0316527 0.234598 -4.34364 0.294404 -0.280929 -0.240327 
2416 0.395662 0.0299295 0.0319401 0.38575 -4.32978 -0.00281324 -0.539368 -0.775862 
3256 0.394583 0.052741 0.060627 0.568607 -4.29869 0.843731 -0.0802829 0.545298 
2457 0.421047 0.0520611 0.0310707 0.334886 -4.34066 -0.206271 0.039609 0.154821 
3217 0.419682 0.0271109 0.0624904 0.426787 -4.33629 0.308374 0.769978 -0.309324 
3216 0.394962 0.0047859 0.0627195 0.19546 -4.37649 0.134342 -0.320748 -0.212561 
2417 0.419685 0.00350081 0.0322392 0.28622 -4.36531 0.378862 0.122045 0.124718 
2418 0.445135 0.0271545 0.0335746 0.505073 -4.34741 0.0324452 0.106059 -0.47152 
3258 0.445739 0.0539031 0.0599751 0.733576 -4.21897 -0.0395071 -1.13656 -0.534058 
1619 0.471895 0.0242945 0.00343576 0.536935 -4.25512 -0.24704 0.615632 -0.363702 
1660 0.499243 0.0484794 0.00308684 4.64036 -4.19274 -0.221727 0.474031 0.248406 
2420 0.496692 0.0252847 0.0303881 0.438577 -4.22617 -0.418646 0.14012 0.40609 
2459 0.470123 0.0519607 0.0274595 0.942934 -4.31775 0.273923 -0.106505 0.380102 
3219 0.4699 0.0286191 0.0612742 0.47796 -4.31125 0.340438 -0.926996 -0.530728 
3260 0.495654 0.0505083 0.0555232 1.39186 -4.33942 -0.0328302 0.172251 1.03343 
3218 0.4455 0.00288977 0.0629979 0.260733 -4.30875 -0.590345 0.448233 0.158013 
1620 0.497724 0.000523431 0.00428081 0.351386 -4.28489 -0.440456 0.737542 -0.150021 
2419 0.469005 0.0029677 0.0329418 0.460741 -4.28662 0.441628 -0.0905466 0.156959 
3220 0.495792 0.00297448 0.06033 0.443284 -4.29581 -0.790424 0.0258097 0.798286 
1621 0.523469 0.0253265 0.00368417 0.161074 -4.34574 0.250104 -0.143322 -0.234129 
2461 0.522639 0.0499023 0.0318746 0.262574 -4.27923 0.418432 0.0102713 -0.102687 
3221 0.52105 0.0267658 0.0612705 0.21108 -4.33151 -0.361939 -0.245192 0.107121 
1662 0.550739 0.0482624 0.005972 0.472966 -4.32908 -0.408115 0.178745 -0.117331 
2422 0.545804 0.0243428 0.0340901 0.662676 -4.3422 0.903696 0.277607 0.198024 
3262 0.546744 0.0495353 0.0638477 0.447612 -4.29841 -0.455029 0.735644 -0.740963 
3222 0.545063 0.00106068 0.0643313 0.34821 -4.33354 0.0786584 0.0625791 -0.634697 
2421 0.520249 0.00219373 0.0339788 0.6458 -4.29507 0.826923 0.0739016 -0.10184 
1622 0.548281 0.00146167 0.00499862 0.408743 -4.20934 0.732504 0.646355 0.0376976 
1623 0.574499 0.0260204 0.00744844 0.481758 -4.29581 -0.083573 -0.887205 -0.105735 
2463 0.573065 0.0497986 0.0367731 0.432118 -4.2982 -0.640187 -0.368716 0.155985 
3223 0.569736 0.025358 0.0641269 0.326799 -4.26467 0.510228 0.180333 0.171391 
1664 0.596833 0.049185 0.00824123 0.760292 -4.30891 1.04856 -0.104115 0.113087 
2424 0.595889 0.0248329 0.0394307 0.777257 -4.33081 0.991574 0.183087 -0.367041 
2423 0.573294 0.00145825 0.0363534 0.695499 -4.35016 -0.830847 -0.292022 -0.192717 
1624 0.598336 5.40179e-05 0.0078826 0.1331 -4.30481 0.228545 0.543719 0.00282499 
3264 0.596534 0.0504384 0.0667016 0.500957 -4.30862 -0.531269 -0.55419 0.217622 
1625 0.622709 0.024248 0.00820839 0.373756 -4.28412 -0.560033 -0.217344 0.673845 
2465 0.622517 0.0496248 0.0362076 1.37189 -4.32924 -1.42593 -0.139013 0.88858 
3225 0.620827 0.0250147 0.0677989 0.400483 -4.32775 -0.317846 0.137407 0.0563035 
1666 0.645428 0.0480925 0.011353 0.335918 -4.27508 0.994396 0.486072 -0.0569929 
2426 0.64516 0.0243968 0.0401982 0.257387 -4.35164 0.310536 -0.523604 0.151416 
1626 0.645495 -1.0622e-05 0.00926971 0.245526 -4.35083 0.44739 -0.626973 0.545157 
1627 0.67083 0.0240702 0.0111765 0.518804 -4.35655 -0.6344 -0.0773673 0.26188 
1668 0.690872 0.0488014 0.0123115 0.892507 -4.3093 0.914169 0.045104 0.937939 
2428 0.691814 0.0242424 0.0456122 0.282983 -4.32828 0.0936888 -0.054035 -0.479154 
2467 0.66789 0.0483881 0.0433977 0.412683 -4.38148 0.145347 0.0386364 -0.0268478 
1629 0.716524 0.0239823 0.0159675 0.223776 -4.3349 -0.486389 0.633175 0.0700097 
2469 0.713886 0.0498752 0.0471856 0.95467 -4.33146 0.264841 -0.869595 -0.504188 
1628 0.693457 0.999888 0.0154365 0.332343 -4.30016 0.275623 -0.0132025 -0.798146 
2427 0.66973 0.999327 0.0401682 0.690026 -4.30848 -0.884132 0.300299 0.633914 
1670 0.738986 0.0508267 0.0180698 0.270212 -4.36822 -0.074635 -0.737019 0.235126 
2430 0.763109 0.0250881 0.0189662 0.603214 -4.36241 -0.394561 0.237394 0.768123 
3229 0.737628 0.0253051 0.0491766 1.20881 -4.32543 -0.0884859 -0.152505 -0.219209 
3270 0.763968 0.0508494 0.0462687 0.366767 -4.25969 0.0894357 0.309477 -0.590727 
2429 0.739542 0.999928 0.0189129 0.210003 -4.35082 0.184727 -0.0367061 -0.00752076 
2432 0.815131 0.0300988 0.019274 4.4807 -4.1807 0.133222 -0.279842 -0.312999 
2471 0.787651 0.0526869 0.0163854 1.06674 -4.33895 0.370808 0.0800848 0.0919159 
3231 0.789996 0.0275822 0.0440504 3.94079 -4.32321 -0.406616 0.601543 -0.0281162 
3232 0.816658 0.00480574 0.0431429 4.52159 -4.23567 -0.0150799 0.0230029 -0.478834 
3272 0.812755 0.0538033 0.0468165 0.66957 -4.30134 0.470403 -0.0905592 -0.00611543 
2431 0.787458 0.9986 0.0244504 4.62569 -4.34765 0.303668 -0.118272 -0.240651 
2473 0.83876 0.0538138 0.0190794 0.232135 -4.24963 0.191192 0.0274746 -0.288592 
2434 0.866934 0.0307796 0.015333 0.702952 -4.32947 -0.425877 -0.981764 -0.508918 
2475 0.889638 0.0543212 0.0129005 0.45019 -4.32856 0.271689 -0.484677 0.295354 
3235 0.890989 0.0288557 0.0434353 0.187922 -4.3458 -0.059145 0.465444 -0.466723 
3274 0.86502 0.0528619 0.045782 0.300756 -4.30722 0.405684 0.507879 -0.51654 
3234 0.867329 0.0050944 0.0428035 0.178411 -4.34194 -0.243175 0.104376 -0.140696 
2435 0.893181 0.00556272 0.0126431 0.419717 -4.27114 -0.388794 -0.11717 -0.0817425 
3233 0.842415 0.0296724 0.0444198 0.607455 -4.30215 -0.777298 -0.771568 -0.0555811 
2436 0.916682 0.0299959 0.0110938 0.721902 -4.2364 -0.315567 -1.0123 0.134638 
2477 0.940124 0.0515119 0.0103534 0.543789 -4.25691 -0.079961 0.652223 -0.152818 
3237 0.940062 0.0304076 0.0408058 0.543533 -4.28811 -0.21564 -1.15733 0.323316 
3276 0.915039 0.0533309 0.04173 0.120444 -4.33453 -0.30809 0.389549 -0.0905992 
3236 0.914876 0.005295 0.0407137 0.617899 -4.2762 1.11439 -0.287369 0.272181 
2437 0.941775 0.00278142 0.0125139 0.289209 -4.34873 -0.376521 -0.00277686 -0.203346 
1639 0.990418 0.0256615 0.9848 0.190832 -4.30923 0.207152 0.399453 -0.493147 
2438 0.964877 0.0266052 0.0125772 0.125492 -4.31121 0.0136462 0.427443 -0.445659 
2479 0.988885 0.0497992 0.012708 0.557775 -4.34445 -0.217969 0.706028 0.404267 
3239 0.987144 0.0284336 0.0447634 0.543874 -4.33655 0.586447 -0.019107 -0.586018 
3278 0.962855 0.0522721 0.0424864 0.216657 -4.34542 0.168511 0.550069 -0.569663 
2439 0.989712 0.00139985 0.0122317 0.441583 -4.35568 0.401617 0.107617 0.918005 
3238 0.96546 0.00423351 0.040517 0.484261 -4.28774 -0.668001 -0.523336 0.567048 
1641 0.0373569 0.0771932 0.988189 0.28209 -4.33263 0.0865287 -0.032365 0.505276 
1682 0.0624736 0.102483 0.987886 0.222776 -4.25028 -0.0208585 -0.0792072 0.600068 
2442 0.0611771 0.0785094 0.0187061 0.284389 -4.30248 0.0509609 0.0766619 -0.565955 
2481 0.0371049 0.103168 0.0148967 0.239228 -4.32937 -0.0537705 -0.12561 -0.378904 
2440 0.0120979 0.0763952 0.0148905 0.200305 -4.33052 -0.308415 0.366248 -0.00677611 
3241 0.0357241 0.078921 0.0430172 0.468904 -4.33072 -0.439728 -0.0770047 0.893645 
3280 0.0112483 0.103369 0.0424693 0.322304 -4.37817 -0.281147 -0.634042 0.202865 
1680 0.0115122 0.101695 0.987657 0.589581 -4.30897 0.334459 0.0370962 -0.346216 
3282 0.0612031 0.10355 0.0443946 0.290422 -4.32844 -0.311556 0.406015 -0.0657725 
1643 0.0868378 0.0772636 0.991527 0.444122 -4.23125 -0.251161 -0.0679026 0.36493 
2444 0.111016 0.0806126 0.0161309 3.91542 -4.36151 0.0120628 -0.713014 0.337531 
2483 0.0864268 0.10565 0.0150292 0.850231 -4.33874 0.148155 -0.639077 0.174469 
3243 0.085681 0.0793602 0.0456742 0.524046 -4.29356 -0.467203 0.277827 -0.0641928 
3284 0.108839 0.104812 0.045937 0.140391 -4.3491 0.0364181 -0.0326697 0.102935 
2446 0.160414 0.0795232 0.0200161 0.425857 -4.29767 -0.457163 -0.514729 -0.0039779 
2485 0.134393 0.103594 0.0182781 0.527982 -4.30748 0.671382 0.882918 0.0787445 
3245 0.134066 0.0792109 0.0466296 0.333421 -4.33031 -0.679921 -0.279171 0.487318 
3286 0.157137 0.104096 0.0489208 0.191717 -4.36816 0.461163 -0.0531439 0.0209599 
3247 0.182462 0.077967 0.0510235 0.325768 -4.36582 -0.315372 0.430496 0.0589547 
2487 0.183618 0.104315 0.0222475 0.236506 -4.38092 -0.233593 0.406142 -0.123146 
2448 0.207869 0.0815202 0.024386 0.627299 -4.32939 -0.502904 -0.95737 -0.376737 
3288 0.206054 0.104984 0.0535713 0.60851 -4.31032 -0.113495 -1.02699 0.825912 
2489 0.230343 0.104182 0.0264847 0.263188 -4.35471 0.831409 0.0415853 -0.746977 
3249 0.229109 0.0799423 0.0572728 0.554103 -4.36626 0.430257 -0.292293 -0.621813 
2450 0.254889 0.0791396 0.0259455 0.248809 -4.34872 -0.563383 0.216873 -0.0102069 
2491 0.277055 0.102579 0.0250337 0.438294 -4.28387 0.811354 0.912225 0.337683 
3251 0.276993 0.0785731 0.0578903 0.306372 -4.35467 0.505153 0.00268713 0.0681694 
3290 0.253595 0.10172 0.0572146 0.342047 -4.31711 0.185276 0.747788 0.240092 
2452 0.301231 0.0780065 0.0252493 0.411252 -4.34351 0.0455801 0.540969 0.323085 
2493 0.325197 0.103017 0.0268209 0.373609 -4.30973 0.0972353 0.24483 0.0451798 
3253 0.324372 0.0789066 0.0582096 0.173575 -4.3452 0.110025 -0.337577 0.247951 
3292 0.301445 0.103344 0.0572903 0.315851 -4.31199 -0.531359 -0.307229 0.435422 
2454 0.34929 0.0814346 0.0277247 0.851166 -4.26581 0.53344 -0.712948 0.154832 
3294 0.34971 0.10249 0.0621835 0.620517 -4.31 0.248204 -0.355888 -0.670682 
2495 0.376671 0.104434 0.0292439 0.706995 -4.31653 -0.538001 -0.434952 0.18737 
3255 0.373317 0.0772086 0.0613532 0.271139 -4.2891 -0.542346 0.49038 -0.329123 
2456 0.397572 0.0774623 0.0308312 0.500592 -4.33736 0.108501 0.474064 0.0993128 
3296 0.398658 0.103244 0.0612924 0.359329 -4.32845 -0.122961 -0.381825 -0.243556 
2497 0.421812 0.102825 0.0307915 0.332995 -4.33921 -0.0126133 0.166539 -0.301517 
3257 0.421864 0.0767227 0.0599987 0.40386 -4.28854 -0.865739 -0.140769 4.38887e-05 
2458 0.443983 0.0778734 0.0284472 0.822892 -4.30542 0.860764 -0.148739 0.355412 
3298 0.446792 0.100917 0.0599624 0.264283 -4.40962 -0.253486 -0.0480327 -0.115738 
2460 0.496761 0.076746 0.0271093 1.02716 -4.30994 -0.304612 -0.639062 -0.254173 
2499 0.470623 0.100985 0.0277765 0.222686 -4.33354 0.214035 0.0604265 -0.0669404 
3259 0.471423 0.0756541 0.0581532 0.21794 -4.38013 -0.0741272 0.313175 -0.118457 
3300 0.497088 0.101303 0.055825 0.459367 -4.32531 -0.512305 -0.561305 0.525818 
1661 0.526763 0.0732023 0.00357915 1.08078 -4.1866 -0.353262 -0.374535 0.77882 
2501 0.521733 0.100312 0.0292479 0.60505 -4.32308 0.412137 -0.375922 -0.361797 
3261 0.520162 0.0744996 0.0579335 0.740671 -4.33271 0.508842 0.248397 0.411713 
1702 0.549511 0.098616 0.00343946 0.409818 -4.29758 -0.605644 -0.349599 0.559587 
2462 0.549852 0.0739482 0.0360796 1.60844 -4.24765 -1.11433 -0.0260986 -1.01327 
3302 0.544731 0.0997835 0.0599364 0.674964 -4.30743 0.869137 -0.0954758 0.423832 
1663 0.572244 0.0734187 0.00600139 0.804062 -4.30241 0.797237 -0.233741 0.671977 
2503 0.572061 0.0999031 0.0331557 0.687222 -4.32755 -0.0616558 -0.247244 0.572087 
1704 0.597051 0.099089 0.00920737 0.312948 -4.32882 -0.605381 0.161259 -0.284068 
2464 0.595629 0.0724164 0.0375634 1.02836 -4.30967 0.113571 1.29476 -0.524077 
3304 0.593409 0.0988803 0.0663479 0.454199 -4.32217 0.622568 0.541628 -0.618307 
3263 0.570795 0.0757611 0.0649682 0.252873 -4.32223 0.108011 -0.120539 0.167713 
1665 0.620572 0.0764328 0.0104872 0.873809 -4.31707 0.13422 -1.36095 -0.0911796 
2505 0.619475 0.100436 0.0376305 0.39787 -4.28165 0.218798 -0.714412 1.16719 
1706 0.644724 0.0987547 0.0110378 0.170343 -4.35076 0.683334 0.0401519 0.0850401 
2466 0.64417 0.0749799 0.0403134 0.20308 -4.33285 -0.0764407 -0.07611 -0.119697 
3306 0.644078 0.0998848 0.0680556 0.317603 -4.34635 -0.68185 0.229353 0.100531 
3265 0.617559 0.0749183 0.0671146 0.55025 -4.36554 1.10783 0.60939 -0.0479351 
1667 0.6689 0.0731785 0.0142055 0.573876 -4.36708 0.189331 0.660104 -0.0193231 
1708 0.694014 0.098174 0.0121696 1.00524 -4.26138 -1.01439 0.845473 1.05306 
2468 0.69222 0.0734707 0.0461405 1.04469 -4.30086 -0.748745 0.643441 -0.68767 
2507 0.668328 0.101266 0.0408858 0.520752 -4.3153 0.0494808 -1.06126 -0.0184507 
1669 0.713763 0.0743711 0.016493 0.785471 -4.32304 0.662515 -0.260972 -0.0359261 
3308 0.714847 0.102273 0.0440768 0.798605 -4.32183 -0.152977 -0.960127 -0.327424 
2470 0.762831 0.0756461 0.0187672 0.480036 -4.36434 0.380994 0.598969 -0.413606 
2509 0.738421 0.0998637 0.0155467 0.397367 -4.33744 0.6505 0.209899 0.399465 
3269 0.737525 0.0769139 0.0439314 0.605577 -4.27299 0.585988 -0.0235206 0.274567 
3310 0.764476 0.102501 0.0468017 0.815654 -4.26307 -0.806257 -0.787895 -0.670864 
2472 0.812285 0.0785838 0.0180126 0.371091 -4.29894 0.221654 -0.285288 0.521329 
2511 0.787069 0.101154 0.0179755 0.307136 -4.34452 0.0749076 0.00692005 0.372081 
3271 0.788714 0.0756829 0.0462809 0.436801 -4.30245 -0.255379 0.510591 0.147437 
3312 0.812497 0.102378 0.0473146 0.180006 -4.34101 0.522737 -0.792837 -0.235926 
2513 0.838051 0.102793 0.0189118 0.269311 -4.28511 -0.471324 0.295842 0.0698063 
3273 0.839299 0.0762724 0.0470776 0.760022 -4.30446 -0.852941 1.0582 0.0109724 
2474 0.862995 0.0787753 0.0180927 0.291471 -4.37692 0.734262 -0.269842 0.123531 
2515 0.88886 0.102863 0.0173103 0.49128 -4.32427 -0.650001 0.00863088 0.206075 
3275 0.889732 0.077111 0.0437742 0.585844 -4.28477 -0.175693 0.144573 -0.00204518 
3314 0.86048 0.104309 0.0460482 1.14516 -4.26364 1.07136 -0.34352 0.120601 
2476 0.914312 0.0781735 0.0127939 0.298771 -4.33746 -0.00773713 -0.418722 0.267877 
2517 0.938482 0.101992 0.0118077 0.625753 -4.32954 -0.010778 0.0635621 1.22299 
3277 0.938159 0.0774648 0.0424634 0.111503 -4.35491 0.324493 0.141909 -0.315488 
3316 0.912302 0.101997 0.0453874 0.43737 -4.3076 0.654172 0.444024 -0.50723 
2478 0.963326 0.0764554 0.010911 0.474685 -4.28872 -0.56113 -0.53323 0.8232 
2519 0.986854 0.100487 0.0125763 0.585516 -4.27383 0.257801 0.773702 0.452342 
3279 0.986249 0.0767281 0.0407766 0.500441 -4.32237 0.169356 0.328677 0.243255 
3318 0.962697 0.103083 0.0425801 0.287257 -4.34243 -0.203219 -0.840295 -0.441301 
2482 0.0623519 0.128988 0.0117038 1.08328 -4.35124 -0.538069 0.266791 0.481421 
2521 0.0370362 0.151614 0.0104067 0.527191 -4.32359 0.0542859 0.448108 0.521095 
3281 0.0360551 0.125794 0.0437436 0.539457 -4.31718 0.112785 1.1622 -0.248409 
3322 0.0603657 0.151413 0.0452616 0.395297 -4.30324 -0.254593 0.559755 -1.09582 
3320 0.0112858 0.150607 0.0448325 0.497407 -4.32198 0.336131 0.346426 -0.761652 
2480 0.013042 0.12772 0.0130168 0.633165 -4.31552 -0.317898 0.256438 -0.0936067 
2484 0.111409 0.129236 0.0158218 0.287927 -4.27346 -0.545792 0.602879 0.358051 
2523 0.0872735 0.15271 0.0147315 0.339267 -4.3201 -0.299006 0.281066 -0.154577 
3283 0.0837776 0.128093 0.0456769 0.366028 -4.32314 0.863024 0.406309 -0.118403 
3324 0.109435 0.153555 0.0489611 0.489763 -4.3047 -0.252369 -0.663459 -1.2515 
2486 0.159958 0.130669 0.0196702 0.597672 -4.29035 -0.576444 -1.13906 0.275463 
2525 0.135391 0.153242 0.0172993 0.313174 -4.30831 -0.631126 0.654326 -0.148342 
3285 0.13348 0.12947 0.0466848 0.29362 -4.34278 -0.0930788 -0.266751 0.115188 
3326 0.156086 0.153252 0.0491801 0.46682 -4.32554 0.832448 -0.0277376 0.376505 
2527 0.183068 0.152115 0.0231995 0.305365 -4.33432 0.536052 0.656434 0.403091 
3287 0.181697 0.126988 0.0546304 0.765383 -4.31099 -0.42806 0.828699 -0.918422 
2488 0.207969 0.128472 0.0263476 0.358174 -4.3623 -0.576605 0.399574 -1.01435 
3328 0.206484 0.15162 0.0575352 0.510932 -4.31164 -0.410343 -0.0548614 -1.20646 
2529 0.231517 0.151162 0.0277044 0.450999 -4.31541 0.0863265 0.570424 -0.544162 
3289 0.230808 0.12662 0.0572224 0.432878 -4.38099 0.221401 0.410748 0.556775 
2490 0.254212 0.127713 0.0254419 0.167277 -4.35683 0.470921 0.158836 0.270692 
2531 0.279158 0.151452 0.0280002 0.221339 -4.32969 -0.624423 0.109064 -0.110829 
3291 0.276712 0.125747 0.0591191 0.503189 -4.34806 0.302788 0.181433 -0.201929 
3330 0.25482 0.151804 0.0581209 0.229363 -4.35385 -0.220578 -0.157466 0.320784 
2492 0.301627 0.127817 0.0269305 0.176928 -4.31203 0.286284 -0.348212 0.171715 
2533 0.326533 0.150788 0.0280621 0.222262 -4.34234 0.125885 0.423752 0.974488 
3293 0.326709 0.125598 0.0597818 0.397824 -4.33472 -0.620822 0.775635 -0.0205143 
3332 0.300923 0.150484 0.0585937 0.265695 -4.35921 0.481231 0.0428237 0.532582 
2494 0.34983 0.125855 0.0290606 0.643752 -4.34768 0.541973 0.360703 0.203368 
3334 0.350597 0.150175 0.0606469 0.211158 -4.3293 -0.691762 0.357931 0.217809 
2535 0.373999 0.15115 0.0329625 0.874837 -4.35902 0.361869 -0.0602878 -0.898451 
3295 0.374422 0.126647 0.0614068 0.210309 -4.32119 -0.142269 -0.340328 -0.188518 
2496 0.400346 0.128472 0.0286916 0.790702 -4.30344 -0.513517 -0.235135 0.904232 
3336 0.398842 0.150673 0.0623335 0.480265 -4.35803 -0.166697 0.291944 -0.527772 
2537 0.422773 0.151775 0.0334964 0.899882 -4.3197 -0.122535 0.49861 -0.744899 
3297 0.423671 0.126736 0.0631261 1.00434 -4.35957 -0.481499 -0.592756 -0.314396 
1738 0.447536 0.154771 0.00257787 0.603412 -4.30723 -0.449245 -0.342626 -0.13334 
2498 0.44614 0.126934 0.0299439 0.261677 -4.3701 0.191645 0.0768025 -0.1925 
2538 0.447628 0.17656 0.0317191 0.223952 -4.32392 -0.504827 0.307174 0.0779744 
3338 0.446833 0.150717 0.0593327 0.397754 -4.30408 0.702629 0.621936 0.415541 
1740 0.496705 0.151931 0.00369564 0.886079 -4.23011 0.611863 -0.0068384 -1.08627 
2500 0.49754 0.125393 0.0272506 0.331182 -4.30712 -0.312798 -0.302227 0.101318 
2539 0.472191 0.151546 0.0289357 0.178444 -4.32868 -0.231842 -0.254509 0.607015 
2540 0.498928 0.175416 0.0306989 0.276643 -4.32662 -0.13051 0.694709 0.193135 
3299 0.47158 0.12523 0.0571721 0.22556 -4.3343 0.344932 0.636344 -0.0443341 
3339 0.472443 0.175287 0.0592535 0.249615 -4.31029 0.693657 -0.115866 -0.174851 
3340 0.497918 0.149858 0.0558254 0.788713 -4.34573 -0.320836 -0.177517 1.04015 
2541 0.522266 0.149795 0.029812 0.323593 -4.34591 0.546214 0.00756054 -0.297285 
3301 0.522698 0.124721 0.0586141 0.292589 -4.31019 -0.74355 0.211116 -0.217609 
3341 0.52278 0.174674 0.0628019 0.578561 -4.35236 0.113385 -0.203778 -0.950154 
1742 0.54787 0.14836 0.000821428 1.11662 -4.40774 -0.0875163 0.14337 0.167304 
2502 0.546497 0.124258 0.0323453 0.247869 -4.2903 0.419023 0.250831 -0.847811 
2542 0.547456 0.173911 0.0313423 0.385368 -4.3211 0.337941 -0.156545 0.697861 
3342 0.546412 0.149204 0.0596749 0.438956 -4.32342 0.209608 0.103527 0.61731 
1703 0.572061 0.124966 0.00539338 0.595112 -4.3113 0.358415 -0.44242 0.281166 
1743 0.572732 0.172985 0.0027627 0.675925 -4.2968 -0.0187176 -0.100897 1.22142 
2543 0.57258 0.150584 0.0345454 0.639359 -4.31783 -0.712606 -0.811651 -0.181077 
3303 0.570048 0.12332 0.0634155 0.324104 -4.37313 -0.110803 0.548638 -0.119906 
3343 0.572557 0.173422 0.064524 0.536241 -4.27044 -1.01921 0.196848 -0.58694 
1744 0.596442 0.146658 0.00829088 0.823098 -4.29092 0.996171 0.810138 -0.249107 
2504 0.596789 0.124648 0.0382875 0.724528 -4.30106 -0.781839 -0.358264 -0.467637 
2544 0.596314 0.173931 0.0354483 0.314119 -4.36749 0.0453089 0.0866226 -0.379109 
3344 0.59527 0.149706 0.0650311 0.292617 -4.35264 -0.169866 -0.588207 0.192363 
1705 0.62142 0.121542 0.00848771 0.712338 -4.25108 -0.0672438 1.68541 0.461428 
1745 0.621524 0.173863 0.00913154 0.135195 -4.32576 -0.204448 -0.569922 -0.0260675 
2545 0.620373 0.147901 0.0374419 0.185901 -4.38324 -0.0855111 0.264229 -0.12111 
1746 0.646162 0.148383 0.0102548 0.20657 -4.29514 -0.947338 0.270507 -0.182222 
2506 0.6443 0.125328 0.0384438 0.274352 -4.37539 -0.0712508 -0.752382 0.420559 
2546 0.644009 0.173557 0.0384731 0.2062 -4.37372 -0.269553 0.0276574 0.452611 
3305 0.618711 0.122987 0.0675714 0.490964 -4.31301 0.493166 0.716257 -0.0521485 
1747 0.669124 0.173472 0.0131436 0.203132 -4.31559 -0.166828 0.279136 -1.08677 
2547 0.668029 0.149706 0.0395896 0.240175 -4.32824 -0.221245 -0.827996 0.554281 
3345 0.618562 0.172609 0.0668848 0.178207 -4.36634 0.332821 0.757293 -0.239796 
1707 0.668859 0.124019 0.0104432 0.234467 -4.32138 0.454274 -0.0230161 0.331232 
1748 0.692617 0.149464 0.0127394 0.15415 -4.34899 -0.00705061 -0.670262 0.0485088 
2508 0.690102 0.123924 0.0421826 0.736821 -4.32823 0.766721 0.554389 -0.491183 
2548 0.691139 0.171856 0.042058 0.554844 -4.31648 0.813741 1.25657 0.365028 
1709 0.717176 0.12523 0.0148412 0.472462 -4.31383 -0.748409 -0.182772 -0.134513 
1749 0.716919 0.174797 0.0153814 0.276173 -4.35564 -0.478579 -0.351025 -0.0753519 
2549 0.715031 0.148802 0.0437096 0.155568 -4.35586 0.234583 0.158386 -0.085947 
1750 0.739217 0.149488 0.0159027 0.165603 -4.34305 0.139472 0.388126 -0.27531 
2510 0.762214 0.125609 0.0165646 0.29878 -4.31294 0.474063 -0.315025 0.250874 
2550 0.73851 0.174544 0.0448548 0.190825 -4.33325 0.56947 0.0296697 0.394425 
1751 0.763313 0.174055 0.0190812 0.332655 -4.35334 0.0235463 0.731263 -0.66629 
3309 0.739792 0.125762 0.0442049 0.157896 -4.29948 -0.000838215 -0.046193 0.413495 
3350 0.764593 0.150706 0.0453986 0.423486 -4.29771 -0.502287 -1.04973 0.0641472 
2512 0.812456 0.126355 0.0191162 0.139997 -4.28223 -0.182112 0.331786 0.386151 
2551 0.78756 0.149675 0.0174202 0.222644 -4.28226 -0.60771 -0.381598 0.709143 
2552 0.809928 0.173997 0.0192912 0.718942 -4.28702 0.761358 0.929491 -0.233519 
3311 0.787601 0.125195 0.0485874 0.488351 -4.32645 0.302306 0.436128 -1.05694 
3351 0.787382 0.175584 0.048021 0.282117 -4.34213 0.12916 0.0385245 -0.358107 
3352 0.810621 0.151007 0.0465314 0.416336 -4.33255 0.667459 -0.27597 0.748246 
2553 0.837429 0.152039 0.0178904 0.445833 -4.34334 -0.627888 -0.238724 0.628995 
3313 0.836929 0.127833 0.0469587 0.212131 -4.34108 -0.322798 -0.237135 -0.180308 
2514 0.86205 0.127308 0.015657 0.415094 -4.32729 0.096493 0.00758223 0.531279 
2554 0.861903 0.175221 0.0156237 0.552126 -4.31017 -0.441568 0.288094 1.36457 
2555 0.886004 0.151632 0.0154292 0.435249 -4.30765 0.522473 -0.0778969 0.147856 
3315 0.886293 0.128896 0.0445426 0.66051 -4.30095 0.0619631 -0.967967 0.31134 
3354 0.861843 0.150441 0.0462489 0.424147 -4.30488 -0.201121 0.944734 -0.481705 
3355 0.88705 0.17501 0.0452925 0.180304 -4.35029 -0.442428 -0.322869 0.128013 
2516 0.912933 0.126051 0.0154573 0.304582 -4.31813 0.107791 0.76841 0.503689 
2557 0.938139 0.150532 0.0152983 0.15807 -4.33499 -0.312115 0.288962 -0.0918854 
3317 0.937913 0.127099 0.0448519 0.209171 -4.31439 -0.491511 -0.260087 -0.568569 
3356 0.910893 0.149527 0.0466304 0.625426 -4.30657 0.459196 0.460417 -0.607734 
3357 0.936362 0.174568 0.0460729 0.196838 -4.29966 0.477612 0.325525 -0.180654 
2518 0.963201 0.12731 0.0136634 0.281528 -4.32374 -0.301824 -0.205801 0.114684 
2559 0.988969 0.152802 0.0125408 0.762605 -4.30345 -0.621894 -0.230757 0.618532 
3319 0.987592 0.126488 0.0401553 0.779974 -4.36745 0.0150886 0.12481 0.638472 
3358 0.963325 0.15067 0.0439786 0.220422 -4.33643 -0.283838 0.408637 -0.266109 
2522 0.06121 0.176498 0.0119963 0.384295 -4.31327 0.09289 -0.558403 0.352811 
3321 0.0353665 0.175315 0.0439994 0.122637 -4.30692 -0.148803 -0.277783 -0.368136 
2520 0.0113582 0.175932 0.0126602 0.224867 -4.30871 0.900695 -0.0738877 0.247483 
2561 0.0359785 0.198193 0.0145275 0.885082 -4.31172 0.15724 0.860905 -0.495513 
2562 0.062324 0.223763 0.0135043 0.7124 -4.26264 -0.855527 0.200976 1.49389 
3361 0.036149 0.223796 0.0455483 0.34605 -4.34398 0.462993 -0.592256 -0.102479 
3362 0.0601409 0.19868 0.0430936 0.635757 -4.29468 -0.182085 0.773373 0.755574 
3360 0.0114482 0.200052 0.0453944 0.252174 -4.36291 -0.0515519 -0.0161108 0.063783 
2560 0.0128286 0.223463 0.0142012 0.294332 -4.3198 -0.0327942 -0.262483 -0.426851 
2524 0.111081 0.178273 0.0179113 0.461395 -4.30987 -0.47895 -0.725505 -0.835938 
3323 0.0836086 0.176522 0.0470392 0.44569 -4.3244 0.543207 -0.186623 -0.742566 
2563 0.0860062 0.200757 0.0152404 0.158978 -4.35863 0.119131 -0.313028 0.228668 
2564 0.109475 0.223422 0.0165669 0.465061 -4.32437 -0.0817119 0.882314 0.579438 
3363 0.0833223 0.223667 0.0478877 0.493092 -4.34745 0.33535 -0.291284 -0.364578 
3364 0.108696 0.199911 0.0477752 0.192282 -4.34377 0.0418344 0.55763 0.17234 
2526 0.159729 0.178703 0.0202909 0.356283 -4.31463 -0.762853 -0.675309 -0.158537 
3325 0.13297 0.176831 0.0486815 0.0909313 -4.3499 0.207449 0.403791 -0.295051 
1765 0.136085 0.225957 0.987924 0.186539 -4.32763 -0.0616132 0.240287 0.0600478 
2565 0.134106 0.202872 0.0163339 0.788616 -4.31895 0.603798 -0.636479 1.03258 
2566 0.159398 0.225418 0.0210446 0.249956 -4.34862 -0.524744 -0.391479 0.00310197 
3365 0.133731 0.224585 0.0509067 0.526443 -4.302 -0.777056 -0.244258 -1.01566 
3366 0.15712 0.200893 0.0502836 0.195375 -4.33088 -0.309947 0.0553226 0.568058 
3327 0.181531 0.176759 0.0531415 0.103019 -4.35695 0.159933 -0.0493858 -0.0981357 
2528 0.20801 0.175704 0.0247078 0.309166 -4.35095 -0.0473716 0.616962 0.535297 
2567 0.182356 0.200869 0.023714 0.352662 -4.30152 0.858587 0.361663 0.0467829 
3367 0.182656 0.223942 0.0560278 0.875464 -4.34757 -0.651662 -0.105503 -0.763256 
2568 0.206918 0.2245 0.0267104 0.205316 -4.31771 -0.0108759 -0.498934 -0.09648 
3368 0.208003 0.200174 0.0559879 0.636685 -4.31868 -1.06105 -0.0926398 -0.0439239 
3329 0.229934 0.17506 0.0580117 0.290564 -4.33187 0.45794 0.105216 -0.176114 
2530 0.254476 0.1755 0.0270791 0.387409 -4.36444 0.675091 0.100015 0.214632 