ITEM: TIMESTEP
500
ITEM: NUMBER OF ATOMS
28567
ITEM: BOX BOUNDS pp pp pp
2.7962548347169047e-02 7.0372037451653227e+01
3.1412811384626593e-02 7.0368587188615777e+01
8.9931535327059930e-01 6.9500684646729724e+01
ITEM: ATOMS id xs ys zs c_csym c_peratom fx fy fz 
802 0.0518053 0.0272318 0.0138969 0.452326 -4.39549 -0.0952584 -0.284132 -0.828632 
841 0.0251217 0.0509303 0.0133917 0.293716 -4.41163 0.16158 0.273378 -0.607322 
1601 0.0265205 0.0256663 0.0375347 0.266942 -4.34499 -0.762705 0.795165 0.0931574 
1642 0.0510429 0.0517932 0.0380968 0.148338 -4.36404 -0.0439064 -0.181771 0.120077 
1600 0.00150246 1.00053 0.0372045 0.28283 -4.33429 -0.525607 0.316605 0.32627 
1602 0.0491927 0.0023451 0.0370819 0.68147 -4.31359 0.873669 -0.707521 0.132488 
804 0.10112 0.0267648 0.0127527 0.120133 -4.39076 -0.131984 -0.254935 0.190576 
843 0.0765182 0.0522242 0.0128476 0.219852 -4.39642 -0.391472 -0.41412 0.0464743 
1603 0.0768908 0.0252907 0.0380865 0.415232 -4.34207 -0.350074 0.67153 -0.0490193 
1644 0.101237 0.0511243 0.0371283 0.498028 -4.31492 -0.406052 0.020666 1.18689 
806 0.150367 0.0257992 0.012301 0.180128 -4.40324 0.241802 0.184644 0.23057 
807 0.174895 0.00118993 0.0116327 0.286156 -4.43113 -0.192567 0.13658 0.125022 
845 0.125562 0.0517309 0.0128491 0.203242 -4.39989 0.164735 -0.385991 -0.0822306 
847 0.177214 0.0493435 0.0127534 0.440074 -4.39217 -0.744573 0.236292 -0.427301 
1605 0.125249 0.0259664 0.0389111 0.135692 -4.39255 0.390954 0.0138707 -0.0488436 
1606 0.150769 0.000101877 0.0397549 0.54369 -4.34353 -0.0629706 0.504901 -0.87094 
1607 0.175789 0.0265148 0.0392962 0.43665 -4.33378 -0.209249 -0.984078 -0.201846 
1646 0.151349 0.0513859 0.038316 0.292737 -4.35602 -0.11163 -0.663504 -0.167183 
805 0.126391 1.00079 0.0124871 0.209791 -4.41742 0.261436 -0.0414953 0.0534682 
808 0.201458 0.0243209 0.0132853 0.490246 -4.35001 -0.969828 0.386319 -0.672372 
849 0.225291 0.0493601 0.0130989 0.11738 -4.41239 0.012583 0.367733 0.135513 
1609 0.225477 0.0245341 0.0368304 0.362124 -4.35022 0.138998 -0.183474 0.761326 
1648 0.199942 0.0492034 0.0400069 0.541597 -4.34938 0.798656 0.0461063 -0.47452 
810 0.250682 0.0248072 0.0129964 0.175288 -4.43276 0.367564 -0.490194 0.0383967 
811 0.275572 -0.0010552 0.0112165 0.34129 -4.39344 -0.0156971 0.563095 -0.204682 
851 0.275856 0.0500771 0.0131768 0.168308 -4.39332 0.244324 -0.37854 -0.387521 
1611 0.276615 0.0252451 0.0396912 0.700507 -4.30718 -0.231484 -0.0380822 -1.2385 
1650 0.250582 0.0493523 0.0383753 0.144803 -4.30958 0.403023 0.296046 -0.305844 
1610 0.25217 -0.0013116 0.0387179 0.614793 -4.33385 -0.364034 0.439708 -0.97764 
812 0.301224 0.0253125 0.0104891 0.358089 -4.39364 -0.209991 -0.376629 0.56042 
813 0.32591 1.00063 0.0109497 0.200903 -4.40537 0.309033 -0.109505 0.417989 
814 0.350143 0.0251948 0.012841 0.324818 -4.40485 0.626783 -0.488365 0.145018 
853 0.3258 0.0488078 0.0122933 0.117105 -4.39042 -0.105698 0.478317 0.0979385 
1613 0.326337 0.024029 0.0392108 0.294043 -4.3768 -0.530202 0.0293439 -0.388255 
1614 0.350285 0.998419 0.0382285 0.483171 -4.32454 0.587893 0.978476 -0.137654 
1652 0.302163 0.0498042 0.0378139 0.344124 -4.36032 -0.547552 -0.420352 0.369622 
1654 0.350642 0.0481733 0.0394722 0.286551 -4.34822 0.229122 0.712558 -0.697405 
815 0.375264 0.999922 0.0121175 0.235664 -4.40251 0.501712 0.0657458 0.176845 
816 0.401542 0.0225678 0.0130428 0.875731 -4.35181 0.00825842 1.18619 -0.00337678 
855 0.37724 0.0489584 0.0133824 0.476 -4.38377 -0.707057 -0.220388 0.0104751 
1615 0.376851 0.0242142 0.038083 0.157569 -4.36843 -0.469079 -0.0522738 -0.0151394 
1616 0.401932 0.998681 0.0384497 0.364512 -4.34696 -0.313299 0.224433 -0.34755 
1656 0.401478 0.050253 0.0387309 0.317562 -4.33327 -0.498798 0.145288 -0.373709 
818 0.450865 0.0242126 0.0121569 0.314787 -4.41898 0.118851 0.271426 -0.814744 
857 0.426088 0.0505155 0.011979 0.309977 -4.41391 -0.265041 -0.203432 -0.335065 
1617 0.426234 0.0262965 0.0367878 0.411245 -4.33827 -0.0551236 -0.791145 0.511048 
1618 0.451578 1.00036 0.0373185 0.150239 -4.37019 -0.0571077 -0.168997 0.298245 
1658 0.450368 0.049771 0.0366111 0.275956 -4.32152 -0.166433 0.64901 0.747063 
817 0.426469 1.00022 0.0126002 0.195573 -4.38429 0.0648241 -0.279077 -0.357596 
820 0.500189 0.0243658 0.011558 0.203894 -4.37996 -0.613647 0.237521 -0.0851571 
859 0.474733 0.0504679 0.0110036 0.171123 -4.38489 0.394348 -0.155023 0.147304 
861 0.525407 0.0503178 0.0107305 0.190368 -4.40483 -0.144663 -0.127053 0.0948079 
1619 0.474438 0.0267327 0.0371961 0.418241 -4.32657 0.746333 -0.566086 0.0464032 
1621 0.524481 0.0250269 0.0362665 0.253129 -4.32013 0.858786 0.569841 0.257615 
1660 0.500108 0.0502672 0.0378268 0.147971 -4.38327 -0.259055 0.0797466 -0.292016 
819 0.475895 0.998826 0.0108436 0.386397 -4.31712 -0.0173149 1.16219 0.697338 
62 0.549231 0.0507915 0.985695 16.6675 -3.77603 0.0576885 0.124441 -0.0552378 
822 0.552042 0.0256061 0.0103737 0.450089 -4.37543 -1.05739 0.0313274 0.298591 
863 0.575715 0.0516013 0.0102966 0.376999 -4.31447 -1.09744 -0.0860579 0.763673 
1623 0.575422 0.0268176 0.0355655 0.400275 -4.3339 -0.278626 -0.420031 0.449915 
1662 0.550862 0.0512241 0.0358362 0.335243 -4.33124 -0.721321 -0.418873 0.413624 
823 0.57549 0.000725474 0.0107548 0.136894 -4.36225 -0.107732 -0.27624 0.298865 
1622 0.550465 1.00033 0.0366403 0.0641996 -4.34528 0.117839 0.373817 0.158479 
824 0.600136 0.0252865 0.011736 0.128415 -4.4078 -0.0305314 0.0750729 -0.0214867 
825 0.625502 0.00144933 0.011152 0.384558 -4.37039 -0.45666 -0.71261 -0.270652 
865 0.625373 0.0495231 0.0123264 0.25533 -4.39977 0.117073 0.305189 -0.473076 
1625 0.625068 0.0240413 0.0368777 0.375076 -4.3394 -0.419806 0.973664 0.475895 
1664 0.600455 0.0516394 0.0373744 0.461309 -4.37514 -0.280142 -0.561912 -0.0270129 
1624 0.599106 0.00107977 0.0371026 0.153219 -4.35762 0.160513 -0.364956 -0.060024 
826 0.651789 0.0239947 0.0127642 0.548946 -4.39191 -0.485892 0.840209 -0.815579 
828 0.701351 0.0249671 0.0124089 0.260255 -4.43575 -0.407384 0.326402 -0.0203367 
867 0.675877 0.0510122 0.0115697 0.351321 -4.38448 -0.231659 -0.243748 -0.00114645 
1626 0.648725 0.000802547 0.0379529 0.470249 -4.30934 1.2898 -0.588769 0.326371 
1627 0.674612 0.0275716 0.0377712 0.878716 -4.33195 0.455099 -0.928104 -0.0394125 
1628 0.700507 0.000698535 0.0380003 0.131595 -4.36207 0.141665 -0.235928 -0.308511 
1666 0.64902 0.0509395 0.0377771 0.50923 -4.3263 0.495921 -0.258302 -0.0132114 
1668 0.70189 0.0515313 0.0363717 0.474302 -4.34296 -0.523552 -0.158745 0.58999 
827 0.675525 -0.000835893 0.012808 0.276706 -4.39393 0.317469 0.321295 0.225221 
830 0.749971 0.0263624 0.00936624 0.559401 -4.39468 0.104235 -0.286312 0.687835 
869 0.725931 0.0519119 0.0106648 0.358909 -4.37747 0.151861 -0.895189 -0.159882 
1629 0.725254 0.0261624 0.0379538 0.244906 -4.35757 0.595811 -0.232361 -0.285695 
1670 0.750871 0.0504867 0.0363544 0.246551 -4.39336 -0.131111 0.0903637 0.386811 
1630 0.750032 1.00095 0.0368031 0.0994138 -4.34763 0.386502 0.0284257 0.247194 
832 0.79946 0.0261495 0.0101358 0.488603 -4.37516 0.347389 -0.112777 0.980894 
871 0.776195 0.051802 0.0114537 0.213092 -4.41243 -0.615496 -0.128331 -0.247817 
1631 0.774348 0.0253359 0.0370834 0.294013 -4.35625 0.529869 0.0448923 -0.15622 
1632 0.800424 0.000428083 0.0371111 0.193453 -4.34866 -0.713888 0.0740195 -0.115977 
1672 0.799386 0.0498455 0.0370973 0.403196 -4.35498 0.635072 0.204707 0.0376292 
834 0.850647 0.0261751 0.0137089 0.522482 -4.39915 -0.321115 -0.13482 -0.426092 
835 0.87342 0.00118869 0.0118985 0.54101 -4.39188 0.968774 0.214576 0.329216 
873 0.825003 0.0522408 0.0123372 0.571075 -4.35112 0.444904 -1.62229 0.127815 
875 0.874844 0.0504545 0.0126442 0.144808 -4.39767 0.124598 -0.578439 0.12012 
1633 0.825094 0.0234548 0.0375934 0.518349 -4.34408 0.0888678 0.950713 -0.199298 
1635 0.875297 0.0247521 0.0400461 0.746302 -4.31053 0.28962 0.168807 -1.23365 
1674 0.850486 0.050496 0.0390026 0.235526 -4.32265 -0.214505 0.062988 -0.765939 
833 0.825091 0.000466686 0.0119355 0.174474 -4.39926 0.446147 -0.0339765 -0.175762 
836 0.900615 0.0252643 0.0119647 0.285891 -4.39017 -0.851605 0.0545616 0.333472 
877 0.92595 0.051832 0.0127096 0.33741 -4.39055 -0.398814 -0.60839 -0.245265 
1637 0.925505 0.0253699 0.0374265 0.1177 -4.35791 0.0646575 0.314526 -0.0250016 
1676 0.900297 0.0507994 0.0369646 0.227611 -4.36172 0.304792 -0.545444 0.415058 
837 0.922961 0.000124424 0.0108666 0.664181 -4.3661 1.35086 0.0698759 0.38818 
1636 0.899348 -0.000293679 0.0372514 0.178152 -4.35315 0.0926018 0.245505 0.0118929 
800 0.000166142 0.0258816 0.0123395 5.26806 -4.26168 0.0773083 0.12707 -0.279508 
1640 0.999947 0.0514551 0.0370489 0.17259 -4.34662 -0.421128 -0.232442 0.257266 
838 0.950855 0.0260284 0.0116902 0.29772 -4.38794 -0.989454 0.00373841 -0.0505256 
879 0.974666 0.0501478 0.0110572 0.28494 -4.41587 0.325248 0.451355 0.222271 
1638 0.949504 1 0.0379617 0.165937 -4.32351 -0.223295 0.143445 -0.117188 
1639 0.975363 0.0257706 0.0373323 0.0839726 -4.33423 -0.444185 0.055838 0.101447 
1678 0.950413 0.0518592 0.0376005 0.142654 -4.35183 0.0959445 -0.634737 0.278283 
839 0.973489 0.00188699 0.0130378 5.34524 -4.20109 1.16508 -0.648347 -0.485508 
842 0.0498707 0.0762376 0.0111965 0.381391 -4.36094 -0.310848 0.347486 1.28828 
881 0.022503 0.100397 0.0125846 0.52467 -4.3967 0.994643 0.471522 -0.129577 
1641 0.0246247 0.0749259 0.0385841 0.228445 -4.34999 0.367266 0.70466 -0.185926 
1682 0.0498873 0.100994 0.0380785 0.0851322 -4.39164 -0.0128862 -0.177905 -0.00684151 
844 0.100351 0.0761169 0.0123533 0.119304 -4.36241 0.224047 0.0157052 0.550463 
883 0.0759821 0.100565 0.0129119 0.156381 -4.40029 -0.258493 0.378276 0.111177 
1643 0.0749507 0.0759522 0.0392838 0.235621 -4.34944 0.460156 0.317914 -0.258845 
1684 0.0995369 0.101815 0.0386551 0.534411 -4.34026 0.828516 -0.871176 -0.0153154 
846 0.151491 0.0750357 0.0118521 0.185552 -4.40635 0.000346097 -0.294054 0.360735 
885 0.125534 0.100101 0.0135519 0.320182 -4.42287 -0.168482 -0.0757832 -0.582295 
887 0.175475 0.0999138 0.0109845 0.172728 -4.39714 0.627307 -0.106923 0.254815 
1645 0.126086 0.0748114 0.0393501 0.313299 -4.35248 -0.518567 0.511007 -0.326528 
1647 0.177677 0.0748022 0.0389766 0.510974 -4.33624 -1.0352 -0.0814597 -0.501141 
1686 0.150975 0.0991772 0.0372632 0.276651 -4.37913 0.453481 0.17038 0.553897 
45 0.124697 0.0757392 0.987438 16.2934 -3.78177 0.228631 -0.0532471 -0.257994 
47 0.17634 0.0742296 0.985821 10.609 -3.78937 0.039976 0.0132349 0.162736 
848 0.201496 0.0745665 0.01294 0.116495 -4.41519 -0.209674 0.169568 -0.151409 
889 0.225104 0.100006 0.0140136 0.504815 -4.36288 -0.0164713 -0.255386 -0.917402 
1649 0.225558 0.0740915 0.0400789 0.38042 -4.3384 -0.33681 0.478987 -0.940367 
1688 0.200109 0.100231 0.0377467 0.187438 -4.34836 0.242622 0.121084 0.531876 
850 0.250532 0.0740365 0.0135665 0.128839 -4.43479 -0.259276 0.0888887 -0.160816 
891 0.275873 0.0989251 0.0121543 0.114409 -4.41178 -0.362193 0.309368 0.353587 
1651 0.27626 0.0743478 0.038395 0.0708606 -4.38009 -0.234917 0.228299 -0.157564 
1690 0.249205 0.0997419 0.0381361 0.295009 -4.36089 0.756537 -0.064236 -0.116568 
852 0.300597 0.075299 0.0119885 0.330439 -4.39143 0.366639 -1.02277 0.528658 
854 0.350617 0.0733871 0.0125262 0.226967 -4.41385 -0.121304 0.137261 0.654138 
893 0.324682 0.0993341 0.0136121 0.343634 -4.36349 0.842331 -0.682415 -0.289807 
1653 0.325857 0.0736372 0.0395625 0.265789 -4.34181 0.168242 0.343102 -0.779123 
1692 0.301555 0.0990418 0.0385003 0.193752 -4.33654 -0.690641 0.0542317 -0.0177758 
1694 0.350241 0.0995958 0.0388833 0.124376 -4.39148 0.0103311 0.0276039 -0.514636 
856 0.398649 0.0740934 0.0108787 1.09907 -4.29192 1.44699 0.266173 0.954163 
895 0.376383 0.100128 0.0134427 0.453903 -4.38886 -0.558546 -0.361658 -0.13373 
1655 0.374972 0.0749461 0.037989 0.202696 -4.38293 0.294683 -0.342053 0.269806 
1696 0.40041 0.100536 0.038666 0.238822 -4.35698 0.0711987 -0.0752989 -0.228587 
858 0.451365 0.0744551 0.0125226 0.402021 -4.36907 -0.608714 0.414601 -0.574295 
897 0.424894 0.0997531 0.0125026 0.148074 -4.4078 -0.0978025 0.0735789 0.103992 
1657 0.424256 0.0755697 0.0370403 0.320377 -4.35285 0.301103 -0.2941 0.577362 
1698 0.449427 0.100061 0.0368415 0.250437 -4.3538 0.125789 0.41806 0.327631 
860 0.499895 0.0752142 0.0100817 0.227666 -4.39706 -0.118431 0.220978 0.642223 
899 0.475336 0.100251 0.0113727 0.271404 -4.40165 0.111551 0.0673719 0.597611 
901 0.525112 0.101027 0.0110486 0.121055 -4.39603 -0.436343 0.266994 -0.1502 
1659 0.473736 0.0751876 0.0382422 0.465432 -4.31348 1.23035 0.236161 -0.221977 
1661 0.525041 0.0749066 0.0365289 0.279018 -4.35892 -0.191908 0.0568567 0.650721 
1700 0.501617 0.101936 0.0358533 0.899952 -4.27333 -0.952017 -1.2479 0.910126 
862 0.5496 0.0775366 0.0106825 0.413843 -4.38749 -0.193451 -0.92881 0.0379602 
903 0.573172 0.101783 0.013974 0.798742 -4.36998 0.560203 -0.219368 -0.926292 
1663 0.5726 0.0763483 0.0377977 0.62134 -4.34187 1.03469 -0.268894 0.00162556 
1702 0.548222 0.0997881 0.0386753 0.523772 -4.3571 0.103774 0.840722 -0.228277 
864 0.597966 0.074928 0.0124894 0.585149 -4.35688 0.904781 0.90151 0.194072 
905 0.625748 0.100331 0.0119968 0.230298 -4.38956 -0.492104 -0.567235 0.0159256 
1665 0.625143 0.0768269 0.0386983 0.446783 -4.33816 0.340353 -0.719723 -0.860571 
1704 0.600799 0.0998097 0.0387994 0.610092 -4.2986 -1.28802 0.352482 -1.10498 
866 0.650964 0.0749381 0.0111178 0.275698 -4.3731 -0.377432 -0.0613595 0.125192 
868 0.701556 0.07436 0.0102781 0.445497 -4.35766 -0.686275 0.839831 0.000645944 
907 0.675392 0.0996155 0.0107851 0.252751 -4.3995 0.263183 0.0461872 -0.0353847 
1667 0.675306 0.0739944 0.0375726 0.471551 -4.34827 0.134612 0.709897 0.248539 
1706 0.650352 0.10112 0.037546 0.17028 -4.38169 0.648751 -0.540195 -0.042659 
1708 0.699528 0.100325 0.0360895 0.508587 -4.36628 0.430176 -0.0538157 0.625665 
870 0.750572 0.0773867 0.0113949 0.255284 -4.39118 0.110994 -0.672421 -0.412394 
909 0.724654 0.100756 0.0111158 0.24174 -4.41065 0.120545 0.316171 -0.0760165 
1669 0.72671 0.0757557 0.0371863 0.354182 -4.35901 -0.736411 0.0322925 0.273173 
1710 0.748942 0.10059 0.037461 0.281382 -4.30676 0.612584 0.272314 0.497572 
872 0.801457 0.0750943 0.0105761 0.492787 -4.33638 -0.656603 0.712752 1.08272 
911 0.77557 0.100526 0.0130798 0.380386 -4.40203 -0.16372 0.159449 -0.376819 
1671 0.774329 0.0759292 0.0376737 0.320209 -4.35604 0.514619 -0.00986315 0.166574 
1712 0.800735 0.100884 0.0372092 0.099447 -4.36045 -0.196712 -0.321984 -0.135091 
874 0.851081 0.074989 0.0127947 0.267561 -4.40587 -0.0395418 0.159618 -0.490339 
913 0.824998 0.101384 0.0109704 0.339583 -4.37065 -0.00993697 -0.786298 0.737155 
915 0.875092 0.0999137 0.0124208 0.116095 -4.38637 -0.283504 -0.237626 -0.117435 
1673 0.826094 0.0756214 0.0360707 0.348149 -4.31286 -0.535035 0.290787 0.782719 
1675 0.875791 0.0749894 0.0382024 0.190364 -4.32526 -0.694635 0.522527 0.0920538 
1714 0.850241 0.0995627 0.0372455 0.186603 -4.34927 -0.099274 0.161606 0.159697 
876 0.898692 0.0757459 0.0132017 0.388755 -4.40862 0.81704 -0.0899319 -0.431562 
917 0.924015 0.101139 0.0124311 0.14644 -4.39029 0.697399 -0.336381 0.166723 
1677 0.926141 0.0763788 0.0381351 0.255284 -4.39205 -0.369298 0.111463 -0.116387 
1716 0.901105 0.101112 0.0377853 0.395371 -4.34692 -0.711206 -0.468815 0.561922 
840 -0.0003719 0.0762892 0.0128729 0.285279 -4.39299 -0.353652 -0.394085 -0.609336 
1680 -0.00115951 0.101048 0.0379802 0.121396 -4.34879 0.567722 0.0503905 0.216284 
878 0.950636 0.0759594 0.0112411 0.244848 -4.37238 -0.0386689 0.411015 0.570853 
919 0.975989 0.102367 0.0121268 0.501106 -4.38871 -0.992196 -0.380862 -0.253641 
1679 0.974174 0.0778972 0.0371411 0.620646 -4.3094 0.216767 -1.48237 0.0632385 
1718 0.950336 0.10175 0.0391847 0.367658 -4.34567 -0.670311 -0.141226 -1.04165 
81 0.0231864 0.12311 0.984523 8.58933 -3.75922 0.276118 0.395842 0.690495 
882 0.0497642 0.126022 0.0128081 0.213524 -4.37563 -0.00792781 -0.758479 -0.438726 
921 0.0245014 0.149523 0.0124891 0.2179 -4.40425 -0.262813 0.275867 -0.110991 
922 0.0488058 0.174814 0.0130499 0.243512 -4.40904 0.475541 0.136144 -0.431503 
1681 0.024524 0.126022 0.038721 0.156212 -4.31234 0.414079 -0.548109 -0.384123 
1721 0.0250953 0.175177 0.0383315 0.103688 -4.3455 0.110713 -0.146386 0.359484 
1722 0.0503797 0.149451 0.0374444 0.253304 -4.33668 -0.129834 0.536661 0.770544 
920 0.99909 0.174203 0.0120481 0.415904 -4.3961 0.727136 0.501044 0.691291 
884 0.101092 0.126618 0.0113399 0.527732 -4.40917 0.0695278 -0.615666 0.226705 
923 0.0749218 0.151079 0.0128578 0.266403 -4.36818 0.0888645 -0.716433 -0.486719 
924 0.100313 0.174246 0.0130512 0.266046 -4.40587 0.556605 0.220889 -0.474564 
1683 0.076197 0.12568 0.0386164 0.129387 -4.35811 -0.117844 0.324634 -0.189121 
1723 0.0760694 0.174049 0.0385479 0.198789 -4.36189 -0.247062 0.340791 -0.269862 
1724 0.103419 0.149806 0.0368721 0.787008 -4.32616 -0.995608 -0.472535 0.521769 
886 0.149892 0.1241 0.010472 0.344546 -4.38857 0.557989 -0.107206 0.545395 
925 0.127819 0.149178 0.0122701 0.428813 -4.38095 -0.649122 0.438882 -0.424164 
926 0.152698 0.175739 0.0135708 0.77032 -4.39614 -0.170883 -0.352972 -0.735709 
927 0.175455 0.148857 0.009971 0.552934 -4.37773 0.219859 0.587488 0.874439 
1685 0.126626 0.123824 0.0387205 0.376016 -4.35685 -0.0988209 0.546055 -0.306082 
1687 0.174671 0.124988 0.037965 0.102699 -4.36601 0.094185 -0.180088 0.170864 
1725 0.127853 0.174065 0.0381912 0.432771 -4.34975 -0.478187 0.983045 -0.176434 
1726 0.150979 0.149476 0.0376576 0.196707 -4.36031 0.407516 -0.13557 0.151252 
1727 0.175287 0.175393 0.0395257 0.283291 -4.30976 -0.0536338 0.00140147 -0.632786 
125 0.12702 0.173923 0.986603 15.7795 -3.76811 -0.314805 0.0449193 0.148683 
126 0.151433 0.14967 0.986528 15.7938 -3.75318 -0.316885 0.235834 -0.387433 
888 0.199523 0.124819 0.0115578 0.153565 -4.38412 0.653972 -0.115724 -0.287186 
928 0.199912 0.17569 0.0122867 0.224093 -4.38754 -0.0643068 -0.88101 -0.0299781 
929 0.224214 0.150758 0.0129719 0.551262 -4.38679 0.262586 -0.605019 -0.753547 
1689 0.225122 0.125774 0.0380168 0.25289 -4.3406 -0.376893 -0.293845 -0.0786223 
1728 0.198627 0.150219 0.0379028 0.321533 -4.36067 0.5629 -0.0902898 0.0454537 
1729 0.22588 0.175042 0.0378692 0.309201 -4.35975 -0.49787 -0.564335 0.489371 
128 0.201338 0.149343 0.984645 10.9713 -3.79135 -0.041209 0.234894 0.386104 
890 0.250288 0.12338 0.0107772 0.584141 -4.38252 0.0817106 0.890412 0.540564 
930 0.250579 0.173925 0.0128579 0.220404 -4.38596 -0.273071 0.660562 0.125001 
931 0.275445 0.149238 0.0127113 0.181483 -4.39845 -0.174269 -0.458465 -0.557951 
1691 0.274534 0.124122 0.0380677 0.153721 -4.38606 0.457158 -0.162597 -0.184939 
1730 0.249779 0.148474 0.0376069 0.170662 -4.34722 0.209733 0.340438 0.045873 
1731 0.275411 0.173108 0.0372327 0.288751 -4.33483 -0.567236 0.923477 0.406355 
130 0.249882 0.151251 0.986313 16.0533 -3.77141 0.266088 -0.550797 0.199806 
892 0.30015 0.122973 0.0124561 0.211298 -4.39026 -0.603075 0.413834 -0.0689228 
894 0.351004 0.123931 0.0123562 0.215694 -4.40726 -0.443636 0.520387 0.183385 
932 0.30046 0.175249 0.0121157 0.220186 -4.40564 0.382688 -0.409653 0.234305 
933 0.324055 0.148675 0.0120999 0.298141 -4.37309 0.891654 0.369004 0.269341 
934 0.349909 0.173676 0.0116294 0.343346 -4.38382 -0.352823 0.283531 0.0777793 
1693 0.324255 0.123902 0.0368757 0.359904 -4.32594 0.781339 0.572802 0.662065 
1732 0.299284 0.149436 0.0375604 0.15953 -4.36605 0.814807 -0.24172 -0.110474 
1733 0.325776 0.175433 0.0386344 0.434173 -4.35865 -0.0776913 -0.596349 -0.571657 
1734 0.349773 0.149346 0.0379387 0.0980416 -4.37569 -0.0659413 0.136764 -0.0190375 
896 0.398659 0.124947 0.0110883 0.442192 -4.37227 0.611024 0.161886 0.798216 
935 0.374805 0.150617 0.0112483 0.182677 -4.40102 0.0883339 -0.2327 0.313052 
936 0.400188 0.175134 0.0105674 0.214036 -4.40094 -0.174189 -0.0227162 0.255095 
1695 0.374924 0.126058 0.0374623 0.216657 -4.35348 0.181082 -0.370549 0.280196 
1735 0.374224 0.175424 0.0380222 0.198969 -4.3578 0.319518 0.284464 -0.357422 
1736 0.397783 0.151645 0.0383874 0.535783 -4.3304 0.964735 -0.512729 -0.470931 
898 0.450497 0.125803 0.0127964 0.301597 -4.38061 -0.34745 -0.13561 0.115189 
937 0.424406 0.149101 0.0119047 0.269139 -4.36887 -0.0405096 0.877641 -0.101195 
938 0.450147 0.17631 0.0116862 0.429282 -4.39087 -0.643321 -0.736776 -0.429996 
1697 0.42476 0.127136 0.0373212 0.308198 -4.37017 -0.381262 -0.677582 0.511673 
1737 0.423765 0.174688 0.0373932 0.408221 -4.33696 0.356462 0.707701 0.16552 
1738 0.449171 0.151745 0.0373736 0.221266 -4.34505 0.246557 -0.186628 0.00648485 
900 0.499384 0.125873 0.0123409 0.335822 -4.40706 -0.0460498 0.274783 -0.425121 
939 0.475491 0.151486 0.011527 0.30459 -4.413 -0.468351 -0.124134 0.250104 
940 0.500144 0.17718 0.0104189 0.547656 -4.373 0.104283 -0.638656 0.0350958 
941 0.524098 0.150462 0.0114506 0.332358 -4.38322 0.511257 0.432814 -0.217384 
1699 0.473715 0.126388 0.0378737 0.327294 -4.35058 0.639498 -0.121115 -0.376215 
1701 0.525299 0.126103 0.0368449 0.189586 -4.35415 -0.0624688 0.293816 0.556061 
1739 0.473999 0.175318 0.0370365 0.244964 -4.31622 0.442508 0.171708 0.276073 
1740 0.499999 0.153371 0.0362961 1.00723 -4.30307 -0.265105 -1.42569 0.337297 
1741 0.52551 0.174172 0.0372556 0.379307 -4.32365 -0.163432 1.05654 -0.0394753 
902 0.549541 0.126749 0.0118472 0.201536 -4.38923 0.0606385 -0.105694 -0.390063 
942 0.549943 0.176054 0.0111373 0.15416 -4.40305 -0.298293 -0.579969 0.725725 
943 0.575811 0.150617 0.0110611 0.277106 -4.42284 -0.423565 -0.192076 0.155305 
1703 0.573816 0.125728 0.0374156 0.249905 -4.3551 0.254858 -0.19226 0.651984 
1742 0.54977 0.150333 0.0385292 0.128898 -4.35387 0.275105 0.237161 -0.411622 
1743 0.574774 0.175177 0.0381882 0.150424 -4.38964 0.413857 -0.204337 -0.0555331 
105 0.626402 0.124694 0.986146 15.6043 -3.77912 -0.745575 0.0256128 0.0274608 
904 0.600055 0.124249 0.0118179 0.268206 -4.40764 -0.174876 0.442436 -0.00818377 
944 0.599867 0.175085 0.0132657 0.234697 -4.40021 0.113972 0.0469095 -0.717488 
945 0.625121 0.150496 0.0123032 0.0804472 -4.41092 -0.231016 -0.147932 0.0933656 
1705 0.62515 0.124267 0.0367395 0.300327 -4.33869 -0.200395 1.09929 0.183411 
1744 0.599679 0.149666 0.037517 0.100864 -4.35717 0.182569 -0.0902341 0.0295697 
1745 0.624185 0.174716 0.0380363 0.293329 -4.33549 0.950473 0.0640339 -0.320789 
906 0.649791 0.125386 0.0120531 0.115425 -4.3847 0.375451 -0.0818106 0.177943 
908 0.699971 0.127693 0.0122164 0.629753 -4.30312 0.122137 -1.61492 -0.0788601 
946 0.649916 0.176673 0.0114822 0.303728 -4.37702 0.43552 -0.873549 0.549673 
947 0.675989 0.151619 0.0128351 0.429959 -4.39116 -0.83915 0.149165 -0.280466 
948 0.699442 0.176292 0.0125928 0.32096 -4.40367 1.04634 -0.168039 -0.237524 
1707 0.67527 0.125437 0.0357095 0.602757 -4.31578 -0.00325591 -0.355199 0.853666 
1746 0.650638 0.149673 0.0379595 0.262476 -4.35363 -0.163884 0.896574 -0.503795 
1747 0.675992 0.177709 0.0371531 0.696414 -4.31867 -0.647078 -1.00905 0.701883 
1748 0.700334 0.149818 0.0381223 0.244714 -4.36365 0.0980839 0.783024 -0.0707059 
146 0.649491 0.149476 0.987959 14.8898 -3.75849 0.329182 0.918844 -0.359633 
910 0.751216 0.126698 0.0123043 0.326043 -4.40224 -0.548071 -0.745935 -0.229747 
949 0.725696 0.150217 0.0120482 0.259228 -4.40715 -0.0858969 0.684672 0.372561 
1709 0.726041 0.125327 0.0375943 0.326152 -4.34307 -0.618384 -0.170541 -0.150428 
1749 0.725236 0.176466 0.0388421 0.345881 -4.35294 -0.445503 -0.0038963 -0.939407 
1750 0.7496 0.152095 0.0377629 0.313919 -4.34929 0.371424 -0.557182 -0.0793947 
912 0.799264 0.126533 0.0119297 0.382983 -4.41028 0.493957 0.0151055 -0.169088 
951 0.775118 0.151404 0.0117854 0.216739 -4.39322 0.0873906 0.407335 -0.154099 
952 0.79973 0.175015 0.0105529 0.23897 -4.38335 0.345266 0.278419 0.407329 
1711 0.775201 0.126177 0.0375606 0.123687 -4.37653 -0.35026 -0.199539 0.322824 
1751 0.775124 0.17563 0.038995 0.331571 -4.35475 0.0948569 0.37881 -0.571374 
1752 0.800606 0.150172 0.0380453 0.12097 -4.35085 -0.290567 0.289363 0.198789 
914 0.84929 0.125131 0.0136424 0.353234 -4.39261 0.664603 0.230442 -0.586928 
953 0.82458 0.15052 0.0118593 0.266372 -4.40653 -0.127592 0.325711 -0.262753 
954 0.848934 0.175291 0.0142325 0.543124 -4.34894 -0.179852 0.361888 -1.25691 
955 0.874525 0.150226 0.0137561 0.181006 -4.37661 -0.194702 0.151776 -0.598675 
1713 0.82508 0.125081 0.0366991 0.141759 -4.34573 -0.259958 0.129692 0.484167 
1715 0.87563 0.124732 0.0369225 0.399283 -4.33467 -0.709179 0.227533 0.680905 
1753 0.824064 0.175361 0.0393347 0.263076 -4.3523 -0.0199345 -0.0764528 -0.222157 
1754 0.849129 0.151009 0.0372085 0.269417 -4.33134 0.116643 -0.573177 0.699388 
1755 0.872978 0.17594 0.0381977 0.220106 -4.34847 0.619589 0.131891 -0.00543366 
916 0.898628 0.124673 0.0125498 0.214867 -4.36767 0.801291 0.450259 -0.254782 
956 0.899617 0.176482 0.0131234 0.228465 -4.38043 -0.179419 -0.525886 -0.0378807 
957 0.924642 0.150719 0.0118933 0.26055 -4.40459 -0.375621 0.152384 0.743105 
1717 0.924337 0.125886 0.0377665 0.0953681 -4.37693 0.233415 0.182987 -0.140543 
1756 0.898604 0.150653 0.0372955 0.140069 -4.36821 0.226128 0.170583 0.197836 
1757 0.923144 0.175919 0.0393778 0.31156 -4.33574 0.473776 -0.251954 -0.455857 
880 -0.00112455 0.126569 0.0129249 0.330955 -4.39177 0.882286 -0.0623168 -0.409626 
1720 1.0007 0.150687 0.0401252 0.602061 -4.32657 -0.167884 0.460561 -0.821015 
918 0.949341 0.126428 0.0116763 0.179864 -4.41526 0.247937 0.0897895 0.367532 
958 0.950866 0.174619 0.0138863 0.392837 -4.38088 -0.877981 -0.0865328 -0.381632 
959 0.975932 0.150925 0.0140882 0.513961 -4.30415 -0.748736 -0.000259145 -0.740271 
1719 0.974164 0.127286 0.0371169 0.51206 -4.35192 -0.069339 -0.719361 0.759488 
1758 0.949044 0.151795 0.0389805 0.312615 -4.3716 -0.251488 -0.659584 -0.00444361 
1759 0.975006 0.174206 0.039909 0.251548 -4.351 0.437404 0.802773 -0.118276 
961 0.0238414 0.199245 0.013889 0.291646 -4.38811 0.292003 0.175327 -0.624125 
962 0.0494929 0.224097 0.0140646 0.302386 -4.38493 0.439815 0.494231 -0.401423 
1761 0.0257565 0.224317 0.0387714 0.177774 -4.3746 -0.245073 0.158196 0.222261 
1762 0.0515234 0.199672 0.0378138 0.240678 -4.36022 -0.326047 -0.319394 0.405115 
963 0.0754347 0.200468 0.0111365 0.471813 -4.38314 -0.112533 -0.505559 0.709063 
964 0.100093 0.224092 0.0124565 0.197696 -4.38667 0.265819 0.658436 -0.312637 
1763 0.0755701 0.224021 0.0387398 0.146513 -4.36834 0.0491114 0.469811 -0.278287 
1764 0.100686 0.199649 0.038364 0.113859 -4.38794 0.202296 -0.295215 -0.365715 
166 0.151085 0.199339 0.987331 16.0115 -3.78691 0.250416 0.290294 -0.264105 
965 0.12596 0.198814 0.0109976 0.481349 -4.37481 -0.100325 0.37905 0.953041 
966 0.150815 0.22463 0.0119545 0.147413 -4.41663 -0.249763 0.374936 0.203873 
967 0.176825 0.200836 0.0126009 0.239145 -4.38526 -0.347261 -0.0892907 -0.102374 
1765 0.125467 0.224399 0.038874 0.163681 -4.34866 0.38799 0.0909503 -0.584463 
1766 0.151805 0.201652 0.0380358 0.447154 -4.34712 -0.628433 -0.63243 0.369925 
1767 0.175763 0.226219 0.0381655 0.134505 -4.3504 0.143751 -0.25752 0.235269 
168 0.20113 0.198977 0.987863 14.9255 -3.76253 -0.102449 0.587858 -0.304886 
968 0.201005 0.226277 0.0138181 0.292707 -4.41643 -0.0697603 -0.747727 -0.379395 
969 0.225517 0.200045 0.0140998 0.152027 -4.41861 -0.0317417 -0.231081 -0.590101 
1768 0.200628 0.199261 0.0386024 0.193655 -4.38801 -0.376242 0.407055 0.167601 
1769 0.225537 0.224019 0.0393606 0.203337 -4.37274 -0.166188 0.337816 0.0611975 
970 0.249675 0.224834 0.0135605 0.136552 -4.3892 0.285983 -0.114728 -0.0430359 
971 0.276203 0.200226 0.0127115 0.15841 -4.39035 -0.43248 0.0128353 0.645249 
1770 0.25018 0.199812 0.0397412 0.281929 -4.37542 0.643639 -0.242779 -0.363769 
1771 0.275289 0.225949 0.0381624 0.242825 -4.3415 0.539588 -0.90381 0.120297 
972 0.300795 0.22644 0.0126296 0.350757 -4.38179 -0.178395 -0.819205 0.134627 
973 0.325073 0.201145 0.0122288 0.38427 -4.38243 -0.185987 -0.728485 -0.314196 
974 0.350769 0.225779 0.0126895 0.415539 -4.37181 -0.0642889 -0.401142 -0.738781 
1772 0.300569 0.198516 0.0382034 0.358087 -4.33523 -0.207885 0.942858 -0.0650378 
1773 0.326339 0.223486 0.037688 0.566424 -4.32624 -0.789535 0.672638 0.344325 
1774 0.351059 0.199714 0.0343285 1.573 -4.28838 -0.20384 -0.145538 1.51478 
975 0.375605 0.200459 0.0110412 0.230237 -4.40455 0.137416 -0.244859 -0.194481 
976 0.400579 0.225493 0.0101064 0.331576 -4.39706 -0.203671 -0.288542 0.810268 
1775 0.375419 0.223913 0.0382589 0.332712 -4.36121 0.489941 0.500247 -0.20879 
1776 0.400874 0.199908 0.0373508 0.218513 -4.36307 -0.333207 0.099253 0.337949 
977 0.425067 0.200766 0.0102205 0.239426 -4.39389 -0.263135 -0.411266 0.100652 
978 0.449959 0.224919 0.0110904 0.133412 -4.41004 0.159556 -0.255044 0.0682271 
1777 0.425901 0.224135 0.0377316 0.171477 -4.34729 -0.46174 0.0773467 -0.124334 
1778 0.449549 0.200075 0.0367701 0.220376 -4.37617 0.0881934 0.0182058 0.320381 
178 0.45043 0.199818 0.98533 15.814 -3.79176 -0.144521 0.227969 0.0146084 
979 0.475935 0.199133 0.0122221 0.619486 -4.36103 -0.691543 0.596309 -0.937867 
980 0.499977 0.224882 0.00981952 0.408388 -4.38885 -0.0710785 0.0525786 0.693511 
981 0.524671 0.20103 0.0105598 0.219606 -4.39372 0.114992 -0.0601764 0.828504 
1779 0.4752 0.22568 0.0364779 0.14929 -4.39153 -0.224728 -0.170156 0.16287 
1780 0.499368 0.201042 0.0365623 0.222371 -4.34226 0.648874 -0.612401 0.559414 
1781 0.524713 0.225342 0.0389629 0.295145 -4.35577 0.295205 -0.0962013 -0.81212 
982 0.549937 0.225096 0.0123879 0.0945596 -4.42624 -0.055298 0.109053 -0.157802 
983 0.575095 0.198701 0.0118191 0.389374 -4.36871 -0.0863084 1.09354 0.549044 
1782 0.550417 0.198488 0.0387537 0.579442 -4.30968 -0.423366 1.12925 -0.526491 
1783 0.574113 0.224335 0.0372279 0.511233 -4.34408 0.633268 0.225692 0.48188 
183 0.575194 0.225383 0.985867 17.1878 -3.80892 -0.341757 0.207754 0.230661 
984 0.599394 0.224952 0.0115871 0.239955 -4.39949 0.33715 0.250269 0.611128 
985 0.624715 0.199931 0.0118432 0.201456 -4.39644 0.136282 0.677374 0.0594773 