ITEM: TIMESTEP
2000
ITEM: NUMBER OF ATOMS
28567
ITEM: BOX BOUNDS pp pp pp
-1.9179770449900957e-01 7.0591797704499641e+01
-1.7942044478744634e-01 7.0579420444787289e+01
3.5378295568651810e+00 6.6862170443135142e+01
ITEM: ATOMS id xs ys zs c_csym c_peratom fx fy fz 
1601 0.0248135 0.0229806 0.00790889 0.0847774 -4.36045 0.227375 0.309935 -0.021728 
1642 0.0505987 0.0466264 0.0088172 0.259156 -4.33869 0.359267 0.305753 -0.257333 
1602 0.0506783 0.997098 0.00716528 0.578669 -4.30468 0.0964993 1.41858 0.510255 
2402 0.0512197 0.0227563 0.0371929 0.434159 -4.36541 -0.274473 0.448601 -0.518018 
2441 0.0248364 0.0473272 0.0342579 0.369919 -4.33338 0.327096 0.4199 0.568929 
2401 0.0254298 0.999487 0.0344107 0.205836 -4.37441 -0.178532 0.0343872 0.583827 
1603 0.0755725 0.0235479 0.00778221 0.130184 -4.3237 -0.387282 -0.122929 0.177574 
1644 0.100977 0.0469354 0.00841536 0.37505 -4.37651 -0.194732 0.323386 -0.248523 
1604 0.0995078 0.000509784 0.0071252 0.511534 -4.30344 1.08923 -0.851039 0.52835 
2404 0.0997586 0.0240246 0.0362241 0.369676 -4.33423 0.91417 -0.224206 0.238992 
2443 0.0762345 0.0477142 0.0357669 0.139779 -4.33626 -0.324717 0.0188033 0.165043 
1605 0.127276 0.0241059 0.00489907 1.06397 -4.35413 -0.491343 -0.426951 0.42742 
1606 0.150554 0.997264 0.00629404 0.331643 -4.33598 -0.209455 0.682949 0.26116 
1607 0.175383 0.0237492 0.00648522 0.151395 -4.36875 -0.170461 -0.123581 -0.364847 
1646 0.150883 0.0490556 0.00543394 0.313126 -4.34688 0.535011 0.358391 -0.232782 
2406 0.150081 0.0237916 0.0343833 0.240402 -4.32961 0.310721 -0.209156 0.244034 
2445 0.127429 0.047433 0.0350666 0.742941 -4.36957 -0.612931 0.23348 0.270751 
2447 0.174352 0.0487339 0.0347779 0.20857 -4.36618 -0.217103 0.353988 0.277699 
2405 0.124741 0.000506126 0.0359175 0.617519 -4.35194 0.0682453 -0.457959 -0.62025 
808 0.201787 0.0225722 0.979196 0.621554 -4.33928 -0.9376 0.00709399 -0.462218 
1609 0.223293 0.0218309 0.00757239 0.651913 -4.32127 0.397136 0.265155 -0.477067 
1648 0.201144 0.0487761 0.00593486 0.367606 -4.35162 -0.651345 -0.0484037 0.0171957 
2408 0.198107 0.0256127 0.0348847 0.888249 -4.32447 0.469216 -1.17014 0.227905 
2449 0.224451 0.047036 0.0334836 0.278372 -4.30771 -0.159747 0.0966491 0.412354 
811 0.273819 0.999496 0.978712 0.172585 -4.3872 -0.240017 -0.0198894 -0.301596 
851 0.273948 0.0485478 0.977141 0.657401 -4.33032 -0.693702 -0.438493 -0.684275 
1611 0.27246 0.0232656 0.00485998 0.200949 -4.34746 0.676096 0.0772358 0.306987 
1650 0.247353 0.0471281 0.00318835 0.666908 -4.33276 0.261566 0.722104 0.88702 
2410 0.248594 0.022953 0.0336109 0.0968391 -4.37362 0.0350033 0.0617894 -0.088385 
2451 0.272862 0.0478206 0.0323584 0.161554 -4.38823 0.151992 -0.140922 -0.058251 
2411 0.273383 0.999399 0.0334748 0.270605 -4.35822 0.252479 -0.506757 0.348576 
812 0.298754 0.0236953 0.975683 0.135851 -4.35437 0.0234871 0.0822463 0.408633 
814 0.348418 0.0237059 0.974236 0.645291 -4.37246 0.194211 -0.234746 0.811166 
853 0.324606 0.0482562 0.975612 0.387758 -4.36847 -0.397279 -0.0840001 0.217116 
1613 0.322819 0.0236886 0.00450002 0.114864 -4.32767 0.371803 -0.304534 0.0467992 
1614 0.347512 0.996784 0.00451113 0.508155 -4.3155 0.0501029 1.07476 0.209908 
1652 0.298352 0.0474935 0.00358253 0.187506 -4.35186 0.245042 0.346007 0.587003 
1654 0.347164 0.048473 0.00570471 0.327131 -4.34879 0.466468 0.154896 -0.184551 
1612 0.298774 0.998896 0.00558372 0.161884 -4.33282 0.0324185 0.581186 0.416332 
2412 0.298349 0.0235558 0.0341843 0.0924257 -4.36176 -0.150612 0.217957 -0.457131 
2414 0.346529 0.0247421 0.032928 0.451015 -4.29988 0.495572 -0.970238 0.181755 
2453 0.322967 0.0483367 0.0346437 0.360078 -4.31239 -0.219139 0.279188 -0.883552 
815 0.374706 0.998319 0.975027 0.724694 -4.33801 -0.851033 0.113018 1.06606 
816 0.399242 0.0236328 0.978378 5.09814 -4.23652 -0.496696 -0.0810737 -0.511345 
855 0.372405 0.0484271 0.977995 6.32446 -4.12958 0.451144 -0.545832 -0.171899 
1615 0.372454 0.0232068 0.00564567 0.187302 -4.39535 -0.0550664 -0.319687 -0.0949673 
1656 0.397611 0.0479221 0.00611523 0.123525 -4.35453 0.029593 0.098388 0.036064 
2416 0.397987 0.0241783 0.0347766 0.309197 -4.37714 0.134 -0.591167 -0.517701 
2455 0.373196 0.048848 0.0331287 0.108577 -4.37849 -0.386206 -0.0938034 0.0765646 
857 0.422993 0.0482432 0.978968 5.07576 -4.19164 -0.147388 0.207582 -0.930101 
1617 0.421772 0.0215812 0.00603037 0.772678 -4.35618 0.31013 0.55512 0.226849 
1658 0.447773 0.0492612 0.00459786 0.387113 -4.33716 -0.00967684 -0.407583 0.694817 
2418 0.44643 0.0239265 0.0321998 0.632199 -4.35611 0.531711 -0.301844 0.514807 
2457 0.422884 0.0486445 0.0325697 0.171214 -4.38731 0.0174976 0.369194 0.0615911 
820 0.497843 0.0257895 0.977226 0.408647 -4.32918 0.435247 -0.701516 0.382167 
859 0.474542 0.04997 0.978123 0.296821 -4.32525 -0.420363 0.66631 0.0956905 
1619 0.473676 0.025133 0.00607141 0.389245 -4.35491 -0.592059 -0.0279972 -0.365431 
1621 0.521821 0.0244873 0.00670095 0.106507 -4.35813 -0.346804 -0.0344013 0.414647 
1660 0.497047 0.0498379 0.00613476 0.167802 -4.34167 0.163392 0.108666 0.645914 
2420 0.495436 0.0246998 0.0364859 0.557693 -4.32449 0.775297 0.421009 -0.798299 
2459 0.469414 0.0498697 0.0356918 0.979499 -4.34949 0.994908 -0.426645 -0.727518 
2461 0.52126 0.0498644 0.034412 0.216643 -4.37425 0.217549 0.109062 0.045723 
1623 0.571569 0.0229463 0.0102857 0.74984 -4.35716 -0.322653 -0.137108 -0.969523 
1662 0.547524 0.0490606 0.0075749 0.134366 -4.37519 -0.348579 -0.228563 -0.0612604 
2422 0.544536 0.0236247 0.0363852 0.716769 -4.33464 0.962412 0.111488 -0.343192 
2463 0.571633 0.0478272 0.0359541 0.311403 -4.34352 -0.335868 0.29594 0.132558 
824 0.596754 0.0218263 0.980654 0.665964 -4.37452 0.51354 1.03189 -0.0662956 
1625 0.621576 0.0224415 0.00874878 0.215983 -4.37855 0.432692 0.524811 -0.280132 
1664 0.595975 0.0467655 0.00913615 0.494686 -4.32954 0.510332 0.79415 -0.580503 
1624 0.597773 0.997586 0.00769619 0.250546 -4.36005 -0.560832 0.449088 0.0061828 
2424 0.597721 0.0232793 0.0346415 0.410656 -4.31376 -0.0327115 -0.144356 0.768172 
2465 0.621353 0.0491682 0.0369162 0.381827 -4.35933 -0.41493 -0.756984 -0.0127275 
2425 0.622474 0.998424 0.0357934 0.109394 -4.35931 0.0700019 -0.223877 -0.0967496 
1626 0.646766 0.99862 0.00762262 0.158513 -4.35739 0.350382 0.0934696 0.342667 
1627 0.670847 0.0238715 0.00888674 0.252977 -4.34384 0.458347 0.154842 -0.240546 
1628 0.698142 0.998624 0.00940478 0.423377 -4.31492 -0.549092 0.0044067 -0.756375 
1666 0.645862 0.0483985 0.00918312 0.267441 -4.32004 0.717919 0.081605 0.517689 
1668 0.694736 0.0497915 0.0114505 0.362348 -4.29621 0.0200307 -0.826223 0.163851 
2426 0.646507 0.0242783 0.0369292 0.303475 -4.3828 0.213681 -0.554192 -0.0612101 
2428 0.695576 0.0231288 0.0377576 0.359809 -4.21257 0.335957 0.900954 0.313532 
2467 0.672035 0.047269 0.0395512 0.679226 -4.32707 -0.951727 0.349846 -0.337605 
2427 0.673456 1.00042 0.0357408 0.799362 -4.29482 -1.34777 -1.08792 -0.0508121 
1629 0.719019 0.0234637 0.0141942 1.53285 -4.03301 -0.370015 0.633214 -0.994907 
1670 0.74338 0.0511835 0.0135804 0.419424 -4.27076 -0.229547 -0.248708 0.524668 
2430 0.744131 0.0240209 0.0375007 0.768805 -4.37925 1.06159 0.114093 0.396005 
2469 0.719796 0.0497896 0.0408066 0.280971 -4.34988 -0.244523 -0.460447 -0.478309 
1631 0.770154 0.0257519 0.0103884 1.29327 -4.40235 0.134996 -0.423956 0.119384 
1672 0.796078 0.0501899 0.00984875 0.727775 -4.42144 -0.178019 -0.224026 -0.363482 
2432 0.795011 0.0260038 0.0399799 0.414864 -4.32706 0.114329 -0.0412645 -0.897941 
2471 0.770349 0.0498866 0.0396488 0.287671 -4.40054 0.174905 -0.151003 -0.494153 
1633 0.821561 0.0249861 0.00840229 0.521968 -4.30003 -0.865884 0.673919 0.631799 
1635 0.870768 0.0253035 0.00772797 0.304175 -4.33471 0.295355 0.349879 0.0867348 
1674 0.845551 0.0506172 0.00938989 0.294843 -4.31942 0.593879 -0.0427402 -0.486347 
2434 0.846495 0.0256139 0.0360091 0.247925 -4.34251 0.257313 0.442886 0.529827 
2473 0.820649 0.0497765 0.0376402 0.18928 -4.37429 0.210507 -0.0169288 0.147537 
2475 0.874233 0.0500451 0.0367437 0.60148 -4.29413 -1.17826 -0.226013 -0.569388 
1637 0.923586 0.0258118 0.00819674 0.150189 -4.36306 -0.0232316 -0.360347 -0.513331 
1676 0.896502 0.0487393 0.00922752 0.670141 -4.31448 -0.00348018 0.956111 -0.732111 
1636 0.898667 -0.000314011 0.00885539 0.381322 -4.31854 -0.298119 1.07042 -0.538861 
2436 0.89911 0.0245345 0.0347902 0.340049 -4.34185 -0.389987 0.0768987 0.472667 
2477 0.923625 0.0500766 0.0350539 0.0797987 -4.34338 -0.0267108 0.0840425 -0.421661 
1600 1.00041 0.999025 0.0070706 0.240549 -4.35553 -0.764264 0.184331 0.00474717 
1640 0.999394 0.0493231 0.00851994 0.311794 -4.33355 0.205558 -0.0687497 -0.398858 
1639 0.975456 0.0259389 0.00756217 0.244402 -4.3365 -0.387256 -0.688881 0.00526513 
1678 0.949867 0.0500782 0.00735534 0.306793 -4.38482 -0.301798 0.161213 0.244819 
2400 0.999084 0.0235226 0.0346699 0.261522 -4.3713 0.086368 0.139942 0.445761 
2438 0.948854 0.0260369 0.0345225 0.251394 -4.34803 0.370042 -0.281205 0.213154 
2479 0.973775 0.0486782 0.0366374 0.509899 -4.33609 0.347144 0.525327 -0.657889 
1641 0.0261899 0.07097 0.00764228 0.581024 -4.34846 -0.156223 1.31612 0.132782 
1682 0.0510421 0.0974235 0.00731345 0.255976 -4.36394 -0.0290219 0.59523 0.135611 
1680 -0.000180163 0.0983102 0.00616816 0.106927 -4.32301 0.20406 -0.185967 0.0967723 
2442 0.0524582 0.0726484 0.0357462 0.558411 -4.29073 -1.1048 0.355641 -0.546237 
2481 0.0253182 0.0990846 0.0334835 0.24862 -4.35557 0.0496544 -0.426939 0.344718 
1643 0.0745714 0.0727443 0.00799169 0.527488 -4.31293 1.37905 -0.172942 0.107023 
1684 0.101113 0.0986427 0.0095867 0.328863 -4.33195 -0.0586763 -0.131633 -0.657911 
2444 0.101998 0.0720391 0.0371397 0.694293 -4.33752 -0.692594 0.744002 -0.866281 
2483 0.0766915 0.0995369 0.0350581 0.31853 -4.32191 -0.634525 -0.591183 -0.109612 
1645 0.124177 0.0715599 0.00755149 0.928174 -4.24305 0.903626 1.10621 0.107937 
1647 0.177602 0.0748574 0.00786997 0.749768 -4.2668 -0.791493 -1.09048 -0.946374 
1686 0.151559 0.0985715 0.00662704 0.303406 -4.32517 -0.684045 -0.502037 -0.163979 
2446 0.149942 0.0739143 0.0344445 0.492467 -4.33897 -0.2181 -0.573796 0.47227 
2485 0.125427 0.0981035 0.0362334 0.251076 -4.36032 -0.0223269 0.0619381 -0.180008 
2487 0.174031 0.096688 0.0346319 0.766515 -4.298 0.795794 0.887173 0.642249 
889 0.224055 0.0993813 0.974609 0.269658 -4.34375 -0.0890608 -0.0779707 0.11344 
1649 0.224816 0.0728416 0.00514447 0.147555 -4.29304 -0.258937 0.00929507 0.293939 
1688 0.200911 0.0980163 0.00706105 0.399966 -4.31101 -0.0724147 0.527437 0.0994144 
2448 0.201122 0.0720802 0.0354518 0.513411 -4.34834 -0.749905 0.218506 0.0267433 
2489 0.224059 0.0973522 0.0354134 0.29917 -4.32734 0.0886439 0.358182 -0.303293 
850 0.247443 0.0722649 0.974374 0.304844 -4.35292 0.114125 0.371819 0.139205 
891 0.27069 0.0969115 0.974695 0.534003 -4.37324 0.532974 -0.0260626 -0.303266 
1651 0.272563 0.0729141 0.00402709 0.174728 -4.35811 -0.356533 -0.288332 0.0562952 
1690 0.246291 0.0968474 0.00466066 0.400544 -4.30125 0.300023 0.631144 -0.118345 
2450 0.247526 0.0703862 0.0353759 0.898745 -4.31454 0.238994 1.02837 -0.701754 
2491 0.271133 0.0963276 0.030897 0.584677 -4.35305 0.0782998 0.283947 0.969942 
852 0.296958 0.0717431 0.974509 0.420665 -4.32851 0.523631 0.298554 -0.224344 
854 0.350005 0.072162 0.975862 4.10551 -4.17859 -0.344726 0.264054 0.269017 
893 0.323806 0.0943198 0.972972 4.36301 -4.24847 0.17871 0.282969 0.269441 
1653 0.323809 0.0733426 0.00315328 0.306155 -4.34829 -0.548628 -0.222772 0.721181 
1692 0.297428 0.0973653 0.00246067 0.350436 -4.35436 0.330553 -0.457935 0.339369 
1694 0.347445 0.0980439 0.00496373 0.397918 -4.29383 0.946364 -0.584874 -0.23586 
2452 0.297536 0.0724068 0.0319781 0.0908989 -4.35821 -0.040129 -0.0291623 -0.335654 
2454 0.348571 0.0746864 0.0334628 0.421952 -4.35294 -0.604715 -0.527134 -0.152586 
2493 0.32146 0.0978449 0.0334517 0.416405 -4.33656 0.261142 0.0480467 -0.706303 
856 0.39679 0.0707564 0.976295 5.1223 -4.12044 0.0470568 0.968855 -0.611904 
895 0.371567 0.0969353 0.97206 3.79575 -4.09097 0.595892 -0.19347 0.851102 
1655 0.373521 0.0740431 0.00634747 0.562716 -4.36681 -0.297657 0.0294152 -0.521949 
1696 0.39729 0.0992222 0.00531622 0.617789 -4.28369 -0.346939 -0.69587 -0.906209 
2456 0.398328 0.0737734 0.0329774 0.155788 -4.37713 -0.0439083 0.101265 0.491568 
2495 0.373598 0.0994251 0.0340143 0.386854 -4.35828 -0.430036 -0.17908 0.3468 
858 0.447193 0.0731853 0.979449 0.918516 -4.32232 0.118954 0.236667 -1.13805 
897 0.420697 0.0966899 0.973768 1.07357 -4.34086 0.176712 -0.0194733 0.197858 
1657 0.421559 0.0740006 0.00429743 0.250454 -4.35479 -0.0084201 0.220571 0.275552 
1698 0.447245 0.0997275 0.00195604 0.761605 -4.34575 -0.356184 -0.143954 0.713046 
2458 0.446709 0.0753026 0.0321086 0.312238 -4.37975 -0.446295 -0.150187 0.22119 
2497 0.42226 0.10006 0.0314861 0.313707 -4.3613 0.236283 -0.450849 0.38752 
899 0.472785 0.0982549 0.975902 0.554527 -4.32726 0.523393 -0.121487 0.266268 
901 0.52342 0.100405 0.972076 2.08628 -4.31505 -0.372968 0.0502832 0.275323 
1659 0.472692 0.0743101 0.00699958 0.529211 -4.3386 0.00206381 0.159034 -0.840092 
1661 0.522524 0.0751004 0.00561118 0.483809 -4.29867 -0.0983215 -0.424014 0.314586 
1700 0.497268 0.0988596 0.00529006 0.405102 -4.24854 -0.225449 -0.15373 -0.264298 
2460 0.49528 0.0742809 0.0350421 0.355076 -4.33071 0.552596 0.253381 -0.199886 
2499 0.470195 0.099509 0.0337449 0.397616 -4.36765 0.706369 0.259922 0.00957613 
2501 0.520644 0.0978972 0.035161 0.270941 -4.34799 0.566218 -0.0295643 0.115488 
862 0.548168 0.0738173 0.978154 0.372054 -4.37478 -0.761761 -0.311628 0.09761 
903 0.571508 0.0986371 0.979241 0.393396 -4.3248 0.157557 -0.467237 0.407847 
1663 0.571983 0.0725281 0.00568064 0.711662 -4.34199 0.205568 0.378253 0.764795 
1702 0.546423 0.0978804 0.00697717 0.26733 -4.33948 0.203847 0.473097 -0.120278 
2462 0.547971 0.073866 0.0354966 0.399934 -4.32558 -0.701717 -0.451685 0.260513 
2503 0.570252 0.0979293 0.0376087 0.298794 -4.32506 0.481165 0.101131 -0.0613291 
864 0.598518 0.071525 0.979832 0.791499 -4.34719 -0.606099 0.640379 0.388228 
905 0.620698 0.0980338 0.983229 0.467141 -4.33528 -0.402061 0.130796 -0.951834 
1665 0.620897 0.0733063 0.0108612 0.263577 -4.32945 -0.374471 -0.10153 -0.754652 
1704 0.593874 0.0990093 0.00981807 0.842391 -4.31308 0.619992 -0.835549 -0.166806 
2464 0.595868 0.0729603 0.0368479 0.178464 -4.36754 -0.596055 -0.0161801 0.280524 
2505 0.619814 0.0965681 0.0382616 0.381448 -4.37597 0.289066 0.87949 -0.0110449 
1667 0.670069 0.0723231 0.0124937 0.648298 -4.35567 -0.154673 0.542281 -0.580509 
1706 0.644331 0.0976038 0.0100615 0.21672 -4.33667 0.383963 0.339957 0.517364 
1708 0.693886 0.0990111 0.0120228 0.342677 -4.301 -0.556716 -0.536043 1.09717 
2466 0.644892 0.0729538 0.0389789 0.200247 -4.34447 0.4782 -0.20151 0.0419753 
2468 0.695158 0.0752147 0.0410377 0.56237 -4.33604 -0.25696 -0.238524 -0.626281 
2507 0.667658 0.0990944 0.0390675 0.485032 -4.32969 0.30397 -0.587749 -0.252757 
1669 0.718782 0.0742026 0.0139351 0.267533 -4.33198 -0.301131 0.295097 0.00382536 
1710 0.74191 0.100167 0.0136288 0.409471 -4.31437 0.930318 -0.341938 0.170953 
2470 0.74558 0.0741348 0.0406981 0.243373 -4.33871 -0.121569 0.716373 -0.410834 
2509 0.719674 0.0997235 0.0407714 0.271681 -4.3364 -0.694544 -0.0694225 0.277579 
1671 0.769517 0.0758519 0.0135412 0.210112 -4.33296 0.116981 0.760346 0.0149238 
1712 0.796065 0.100963 0.0123996 0.282354 -4.30393 -0.384779 -0.519962 0.235663 
2472 0.796792 0.0741066 0.0367875 0.628442 -4.36848 -0.176374 0.418599 0.641165 
2511 0.770847 0.100542 0.0411429 0.445642 -4.31737 -0.561833 -0.579375 -0.705612 
1673 0.821756 0.0749728 0.00855844 0.473031 -4.3375 -0.0729695 -0.336945 -0.0598333 
1675 0.871002 0.0761118 0.00828724 0.370835 -4.34518 0.115859 -0.780936 -0.0799177 
1714 0.845773 0.100154 0.00870391 0.328795 -4.34482 0.720689 -0.280419 -0.442614 
2474 0.847251 0.0736546 0.0366173 0.365291 -4.33707 0.0613057 0.373393 0.139477 
2513 0.823336 0.0984741 0.0353213 0.87868 -4.33221 -0.820913 0.318588 0.858314 
2515 0.871631 0.10076 0.0355021 0.189246 -4.35752 0.101079 -0.505634 0.279557 
1677 0.922194 0.0732574 0.00883271 0.427457 -4.32142 0.0430389 0.730007 -0.658318 
1716 0.895432 0.0996294 0.00791491 0.495861 -4.31201 1.01103 -0.219477 -0.268891 
2476 0.898297 0.0753658 0.03597 0.272509 -4.33401 -0.695773 -0.123299 -0.444347 
2517 0.922923 0.0992164 0.0335846 0.224642 -4.3297 0.114828 -0.0650937 0.181846 
1679 0.975348 0.0744004 0.00764002 0.209515 -4.32802 -0.658507 -0.11714 -0.21677 
1718 0.948291 0.0991889 0.00643518 0.177442 -4.34068 0.572292 -0.409388 0.206519 
2440 0.999918 0.0738015 0.0338957 0.157243 -4.32493 0.192708 0.0829252 0.613142 
2478 0.948997 0.0750927 0.035925 0.308286 -4.3613 0.19404 -0.138062 -1.04682 
2519 0.97591 0.0990378 0.0343337 0.302458 -4.34385 -0.670758 0.0252016 -0.0642621 
1681 0.0245054 0.122476 0.00572504 0.370807 -4.31904 -0.0880467 0.471607 0.116418 
1721 0.0247165 0.175432 0.0053153 0.517103 -4.34837 -0.0407106 -0.342338 -0.174731 
1722 0.0494559 0.147802 0.00641925 0.330582 -4.31255 0.111619 0.861466 -0.0372524 
2482 0.0497143 0.124965 0.0342478 0.262424 -4.38087 -0.0680657 -0.86078 -0.331523 
2521 0.0240476 0.148315 0.0323879 0.304112 -4.35438 -0.35899 -0.124523 0.0229001 
2522 0.0477312 0.172895 0.0332234 0.702737 -4.35111 0.382303 0.921644 -0.238487 
2520 0.999969 0.174201 0.0330516 0.279573 -4.36941 -0.236609 0.121704 -0.143219 
1683 0.0770977 0.124687 0.00827115 0.398263 -4.34164 -0.596324 -0.242328 -0.443932 
1723 0.0751864 0.174885 0.00751141 0.353348 -4.34033 0.0310232 -0.591467 -0.572206 
1724 0.102126 0.149538 0.00927776 0.720425 -4.29711 -0.621104 -0.0163877 -0.913857 
2484 0.0999914 0.125271 0.0356689 0.260048 -4.34435 0.364998 -0.349861 0.114421 
2523 0.0737888 0.149991 0.0335225 0.243058 -4.35235 0.513416 0.000885182 0.0414628 
2524 0.100763 0.174566 0.0343226 0.273742 -4.34246 -0.0469217 0.076435 -0.238511 
1685 0.125934 0.123683 0.00729658 0.0987199 -4.36792 -0.184749 -0.118277 -0.215542 
1687 0.175883 0.124533 0.00763413 0.369248 -4.38514 0.0220767 -0.69744 -0.3043 
1725 0.1262 0.174008 0.0073135 0.199657 -4.36762 0.449568 0.130051 -0.132684 
1726 0.151169 0.148192 0.00696075 0.272353 -4.32683 -0.935408 0.280061 -0.461095 
1727 0.173878 0.17516 0.00700919 0.347109 -4.3508 0.209122 -0.357936 0.0254933 
2486 0.149392 0.12213 0.0347373 0.361849 -4.35638 0.554641 0.189826 0.513483 
2525 0.125836 0.147546 0.0350498 0.478779 -4.33609 0.361896 0.774347 0.75953 
2527 0.173376 0.149631 0.0326698 1.01075 -4.27483 0.789776 0.0400087 1.49467 
2526 0.149355 0.174184 0.0368745 0.612359 -4.33371 0.28218 0.13634 -0.664937 
1689 0.222015 0.123616 0.00431335 0.636593 -4.31566 0.632915 0.130516 0.440279 
1728 0.199761 0.150999 0.00673713 0.675591 -4.36142 0.117041 -0.542969 -0.134665 
1729 0.226091 0.172533 0.00502807 0.848327 -4.31423 -0.507512 0.186203 0.72772 
2488 0.198903 0.125222 0.0352359 0.595571 -4.3261 0.386162 -0.555553 -0.471541 
2528 0.199827 0.174545 0.0342933 0.202638 -4.35077 0.0621645 -0.53446 0.270364 
2529 0.225073 0.148265 0.0365229 0.957786 -4.3062 -0.348888 0.240592 -1.05483 
931 0.27476 0.14889 0.975236 0.395208 -4.35883 -0.472103 -0.257045 0.0592463 
1691 0.271983 0.120596 0.00401934 0.491953 -4.32707 -0.00923314 0.678741 -0.170203 
1730 0.248613 0.145769 0.0032271 0.992363 -4.31781 0.166316 0.786032 0.461717 
1731 0.274071 0.172973 0.00668834 0.381624 -4.31236 -0.648397 -0.245595 -0.865308 
2490 0.246814 0.123249 0.0331612 0.355825 -4.3037 0.200843 -0.613606 -0.0447881 
2530 0.250211 0.172718 0.0335734 0.360765 -4.33763 -0.786919 0.219705 0.126873 
2531 0.271619 0.146854 0.032916 0.279016 -4.31709 0.513027 -0.188723 -0.258877 
892 0.297826 0.122278 0.97718 0.68951 -4.33933 0.281803 -0.149221 -0.978808 
932 0.299652 0.173596 0.978377 0.595048 -4.37548 -0.146847 -0.0523788 -0.554498 
1693 0.324464 0.120202 0.00352061 1.00821 -4.29183 -1.17666 1.13801 -0.46443 
1732 0.297216 0.147302 0.00349539 0.378655 -4.32453 0.467135 -0.488405 0.345231 
1733 0.324143 0.171499 0.00522232 0.31895 -4.33602 -0.129677 -0.191905 -0.00849297 
1734 0.349589 0.146788 0.0033432 0.484257 -4.35367 -0.594265 0.437038 0.033216 
2492 0.296651 0.121825 0.0316207 0.124753 -4.37285 0.187474 0.346139 -0.0173759 
2494 0.347518 0.123825 0.0311737 0.675206 -4.31182 0.0303531 -1.07623 0.791126 
2532 0.2966 0.170229 0.0325437 0.982696 -4.33303 0.939344 0.380036 0.611034 
2533 0.322726 0.146277 0.0314406 0.204727 -4.34292 -0.23331 0.464357 0.210072 
2534 0.349135 0.172137 0.0330768 0.360993 -4.38343 -0.22518 -0.610828 0.296548 
935 0.372219 0.145 0.972285 4.79277 -4.24628 5.83211e-05 0.01856 0.291296 
936 0.397839 0.173874 0.977705 1.30248 -4.27558 -0.125898 -0.54141 -0.510881 
1695 0.372731 0.123185 0.00497312 0.426771 -4.3176 0.180021 -0.687162 -0.614445 
1735 0.372445 0.172697 0.00397517 0.588657 -4.24228 0.0065959 -0.527047 -0.581716 
1736 0.396606 0.147472 0.00330496 0.437365 -4.37371 -0.152186 -0.12285 -0.382993 
2496 0.397663 0.123384 0.0326685 0.123875 -4.28317 -0.363109 -0.367315 0.494466 
2535 0.372521 0.146009 0.0350927 1.14461 -4.34142 0.432633 0.902213 -0.673107 
2536 0.394931 0.174124 0.0314914 0.88251 -4.35527 0.479171 -0.464311 0.672361 
898 0.449574 0.124517 0.976133 1.56429 -4.33401 -0.594347 -0.283672 0.0477114 
937 0.424063 0.149086 0.975409 0.707637 -4.30254 -0.93633 -0.305474 0.317768 
1697 0.420656 0.122956 0.00149681 0.931841 -4.36879 0.640252 0.214999 0.117938 
1737 0.420628 0.173257 0.00614051 0.60667 -4.33887 0.167692 0.210977 -0.543388 
1738 0.444929 0.148997 0.00442205 0.547593 -4.33434 0.793573 -0.52453 0.299539 
2498 0.447018 0.12465 0.0315302 0.435508 -4.35646 -0.488668 -0.409365 0.00705377 
2537 0.419449 0.147274 0.0320248 0.637569 -4.33667 0.882223 0.630221 0.225532 
2538 0.445524 0.17233 0.0330141 0.178305 -4.37302 0.0763025 0.0804516 0.423334 
939 0.471274 0.150736 0.976792 1.77018 -4.29708 0.39796 -0.725727 -0.0888386 
940 0.49738 0.171928 0.976623 1.58498 -4.28204 -0.64364 1.1211 -0.592001 
941 0.519108 0.147042 0.977458 1.70438 -4.20602 0.828589 0.165651 -0.607398 
1699 0.473025 0.122907 0.00425797 0.742065 -4.3167 -0.174843 0.450751 -0.277597 
1701 0.520374 0.122198 0.00516914 0.527343 -4.31615 0.358229 0.313953 0.0514386 
1740 0.496242 0.148404 0.00540727 0.265102 -4.32534 -0.0137692 -0.0395472 0.157615 
1741 0.519923 0.173613 0.00632176 0.148005 -4.34338 -0.197059 0.183054 0.525759 
2500 0.496359 0.123868 0.0334436 0.189937 -4.3435 0.0482072 -0.464262 0.342572 
2539 0.471284 0.147176 0.0317346 0.575997 -4.33134 0.11828 0.775628 0.758834 
2540 0.495028 0.174018 0.0359516 0.347472 -4.33101 0.171915 -0.906726 -0.670802 
2541 0.51962 0.148965 0.0348193 0.225467 -4.32416 0.57625 -0.519114 -0.482116 
902 0.54659 0.123214 0.977524 0.566282 -4.26661 0.0397434 -0.126138 0.106181 
943 0.571793 0.147213 0.979827 0.510508 -4.33692 -0.351695 0.723304 0.686314 
1703 0.569968 0.123972 0.0102619 0.677138 -4.34377 -0.0383471 -0.0139438 -0.8941 
1742 0.543608 0.148678 0.00590062 0.537092 -4.35904 0.619515 -0.391933 0.325571 
1743 0.568497 0.17358 0.00963471 0.431648 -4.34362 0.505504 -0.493065 -0.581298 
2502 0.545214 0.123058 0.0356006 0.0780664 -4.34363 -0.265965 0.00514632 -0.133355 
2542 0.544624 0.173014 0.0355015 0.19618 -4.36613 -0.299362 0.279817 0.241513 
2543 0.569899 0.14801 0.038136 0.350653 -4.31564 0.0941608 -0.130429 -1.17871 
904 0.595366 0.12208 0.982222 0.531672 -4.28949 0.723371 0.463168 -0.399054 
1705 0.619504 0.122918 0.00987655 0.143872 -4.38249 0.570218 0.0817889 0.231254 
1744 0.595747 0.148433 0.00886313 0.184629 -4.35909 -0.635557 -0.0910977 0.165219 
1745 0.620286 0.171681 0.00904131 0.649824 -4.24985 -1.11249 0.759713 0.745886 
2504 0.595746 0.123149 0.0368162 0.283494 -4.35821 -0.503717 -0.118493 0.300252 
2544 0.593878 0.173568 0.0373082 0.249575 -4.36732 0.482199 -0.479646 -0.349969 
2545 0.618527 0.148084 0.0379982 0.130501 -4.32802 0.272332 0.192625 0.376123 
1707 0.6678 0.123432 0.0110303 0.356779 -4.32252 0.0870791 -0.0723064 0.854212 
1746 0.64374 0.148837 0.0118153 0.174202 -4.34476 0.293378 -0.6366 -0.291296 
1747 0.668273 0.173834 0.0135656 0.156782 -4.36412 -0.452459 -0.315707 0.0925494 
1748 0.69215 0.147906 0.0152717 0.313173 -4.34722 -0.0272834 0.375361 -0.347937 
2506 0.644307 0.12404 0.0399859 0.32049 -4.33208 -0.612164 -0.530847 -0.596477 
2508 0.691819 0.122304 0.0405767 0.487067 -4.35184 0.854395 0.313179 -0.15965 
2546 0.641712 0.173546 0.0380322 0.596831 -4.33167 0.492538 -0.604753 0.708263 
2547 0.66765 0.147891 0.0406583 0.2002 -4.36623 0.156842 0.490803 0.14951 
2548 0.693249 0.173534 0.0420538 0.225515 -4.32982 -0.505068 -0.538333 0.141848 
1709 0.717803 0.124605 0.0143661 0.194438 -4.31431 -0.257696 -0.153832 0.590894 
1749 0.71628 0.173572 0.0156272 0.133109 -4.36648 0.287027 -0.0597909 -0.0361459 
1750 0.741677 0.149977 0.0165701 0.364461 -4.35572 0.211747 -0.133471 -0.303292 
2510 0.744496 0.124249 0.040908 0.186276 -4.3387 0.0748636 0.0166471 0.21516 
2549 0.717141 0.148114 0.0425917 0.190888 -4.35054 -0.132039 0.17684 -0.0569648 
2550 0.740759 0.173807 0.0450488 0.833402 -4.3134 0.675386 -0.327053 -0.561812 
1711 0.768567 0.124642 0.0135294 0.136745 -4.32531 -0.203291 0.222537 0.352015 
1751 0.765514 0.173762 0.0172243 0.651397 -4.32069 0.793197 0.0462457 0.0428772 
1752 0.793585 0.14794 0.0130664 0.378216 -4.34648 -0.0400537 0.792124 0.124076 
1713 0.820277 0.125117 0.00992085 0.28277 -4.34234 0.367528 0.310094 0.508504 
2512 0.795331 0.12335 0.0387635 0.220021 -4.30548 0.586498 0.38117 0.292309 
2551 0.770106 0.148841 0.0423512 0.332517 -4.37124 -0.478909 -0.136089 0.0724249 
2552 0.794689 0.173546 0.0430639 0.323498 -4.36406 0.0290954 0.103069 -0.499297 
1715 0.871463 0.124793 0.00666653 0.208083 -4.37416 -0.0516976 0.260459 0.348622 
1753 0.817129 0.173443 0.0118935 0.809532 -4.323 0.785503 -0.30926 -0.258141 
1754 0.846244 0.149407 0.0101578 0.445734 -4.2748 -0.893319 0.071801 -0.872745 
1755 0.870807 0.171951 0.00663092 0.473042 -4.29838 0.246481 0.47425 0.346677 
2514 0.846225 0.124906 0.0352359 0.340974 -4.33081 0.0873451 -0.0346744 0.461031 
2553 0.82038 0.149528 0.0401988 0.515078 -4.36104 0.132596 -0.449823 -0.679952 
2554 0.845479 0.17324 0.0366645 0.333037 -4.32246 -0.0816821 -0.215222 0.422204 
2555 0.870867 0.149117 0.0362262 0.240554 -4.36442 0.665889 -0.176568 -0.514588 
1717 0.923421 0.123075 0.00760172 0.487099 -4.32069 -0.314444 0.917594 -0.771666 
1756 0.89826 0.150692 0.00694942 0.797868 -4.29614 -0.651005 -1.14858 -0.400301 
1757 0.92431 0.172141 0.00483034 0.600818 -4.31844 -0.114749 1.03885 0.341736 
2516 0.897499 0.124496 0.0330882 0.466888 -4.37781 -0.357294 0.275072 0.633826 
2556 0.89677 0.172781 0.0338485 0.218639 -4.28395 -0.146128 0.502436 0.140971 
2557 0.921243 0.149702 0.0348643 0.689633 -4.28048 0.935903 -0.926989 -0.572789 
1720 0.999504 0.150446 0.00412672 0.620304 -4.35474 -0.346171 -0.541861 0.681408 
1719 0.974849 0.123336 0.00690745 0.236505 -4.38984 0.0151533 0.169888 -0.66937 
1758 0.948807 0.148868 0.00520743 0.277199 -4.33511 -0.086109 -0.374622 0.0287241 
1759 0.972604 0.174836 0.0061305 0.685543 -4.34925 0.325933 -0.482624 -0.54128 
2480 0.000417504 0.123745 0.0342738 0.217348 -4.35287 -0.210834 0.167106 -0.482742 
2518 0.949282 0.124425 0.032753 0.345326 -4.34525 -0.352326 0.00649993 0.455504 
2558 0.948396 0.172298 0.0330314 0.399287 -4.35611 -0.0458085 0.491054 0.501771 
2559 0.974893 0.148673 0.0336191 0.23722 -4.36123 -0.321219 0.198052 -0.290677 
1761 0.028621 0.224265 0.00407703 1.22822 -4.25705 -1.4082 0.051631 0.0568134 
1762 0.0504617 0.199558 0.00579855 0.167624 -4.28164 -0.0575122 -0.328574 -0.494564 
2561 0.0256758 0.201136 0.0324024 0.804618 -4.32125 -0.525577 -1.03144 0.332281 
2562 0.0508187 0.224844 0.0331226 0.163912 -4.32976 -0.0170871 -0.135893 -0.307377 
2560 1.00021 0.223121 0.0321466 0.329736 -4.32251 -0.419881 0.167576 0.149816 
964 0.100175 0.224623 0.977468 0.237407 -4.39553 0.212582 -0.0539147 -0.349347 
1763 0.0763454 0.22428 0.00621803 0.241574 -4.38503 -0.406364 0.038235 -0.456065 
1764 0.101598 0.199996 0.00433423 0.760871 -4.3497 -0.438854 -0.480596 0.891201 
2563 0.0732674 0.198447 0.0328459 0.567376 -4.33852 0.828304 0.396619 0.23486 
2564 0.0994466 0.22393 0.0341432 0.198811 -4.35133 0.813235 0.097849 -0.277372 
967 0.172931 0.199217 0.979351 0.70578 -4.38607 1.22536 0.215627 -0.837177 
1765 0.125675 0.22463 0.00492837 0.132367 -4.36674 -0.125854 0.316004 0.31942 
1766 0.151035 0.200418 0.00698741 0.319504 -4.32742 -0.882241 -0.409258 0.240876 
1767 0.175282 0.223837 0.00608762 0.164971 -4.37262 0.0553579 0.110544 0.377655 
2565 0.125113 0.199858 0.0344517 0.13921 -4.34456 0.179015 0.0543442 -0.115951 
2566 0.149762 0.224534 0.0342673 0.141686 -4.33946 0.0481575 0.00926849 0.507261 
2567 0.175106 0.199056 0.0351657 0.147136 -4.38698 -0.362151 0.195112 0.251219 
968 0.199523 0.22412 0.978737 0.195445 -4.39191 0.337969 -0.617 -0.152537 
969 0.223361 0.198157 0.980085 0.777414 -4.35356 0.588399 0.22079 -0.565898 
1768 0.19922 0.19831 0.00756221 0.334382 -4.3585 0.199819 0.234538 -0.644249 
1769 0.224338 0.225574 0.00670387 0.355602 -4.33587 -0.143687 -0.69661 0.153916 
2568 0.199394 0.223244 0.0356382 0.474422 -4.33063 0.117576 0.858597 -0.755359 
2569 0.224165 0.199802 0.0334059 0.260455 -4.34347 0.648544 -0.598096 0.183226 
970 0.248379 0.223227 0.977407 0.798527 -4.33787 0.766603 -0.255345 0.82573 
971 0.274822 0.19792 0.979662 0.486881 -4.35537 -0.243064 0.135398 -0.120247 
1770 0.249874 0.198825 0.00708909 0.269728 -4.33058 -0.11502 0.146119 -0.419516 
1771 0.276364 0.224754 0.00571013 0.407917 -4.35778 -0.492383 -0.57837 0.075743 
2570 0.249374 0.224638 0.0323942 0.393015 -4.34524 0.136121 0.168651 0.723811 
2571 0.274487 0.198966 0.0343407 0.291063 -4.37632 0.0818519 -0.128606 -0.408192 
973 0.325594 0.196112 0.975451 4.94719 -4.2442 -0.235263 0.4317 0.167496 
974 0.341876 0.227326 0.96975 4.56974 -4.19331 -0.269845 -1.05335 -0.122433 