ITEM: TIMESTEP
3000
ITEM: NUMBER OF ATOMS
28567
ITEM: BOX BOUNDS pp pp pp
-1.5575357459423671e+00 7.1957535745942778e+01
-6.1516016347619740e-01 7.1015160163475969e+01
5.2968390259282359e+00 6.5103160974072082e+01
ITEM: ATOMS id xs ys zs c_csym c_peratom fx fy fz 
1601 0.0268257 0.0263642 0.000528473 0.207721 -4.34845 0.191484 -0.253491 -0.244377 
1642 0.0517071 0.0500137 0.999797 0.237494 -4.33047 0.239906 -0.0293463 0.385387 
1602 0.0508666 0.000367047 0.00233843 0.7041 -4.30059 0.869743 0.0951389 -0.548232 
2402 0.0511859 0.0265707 0.0286609 0.331752 -4.33528 0.574887 -0.620495 -0.304794 
2441 0.0276174 0.0500026 0.0275088 0.114263 -4.31203 -0.383728 0.430874 -0.0292314 
3201 0.0270673 0.025417 0.0547291 0.115415 -4.33033 -0.0756663 0.238556 -0.109759 
3242 0.0518963 0.0506945 0.0546688 0.280477 -4.29698 0.534955 0.275689 0.0610396 
1603 0.0770324 0.0238597 0.00142012 0.64758 -4.28973 -0.422702 1.04612 0.204596 
1644 0.103107 0.0499148 0.000520602 4.76067 -4.18604 -0.791159 0.0861337 0.929071 
2404 0.103453 0.0258522 0.0286448 0.469592 -4.31957 -0.414007 0.273862 -0.200582 
2443 0.0774618 0.0499854 0.0278908 0.622603 -4.25644 -0.400488 -0.128582 -0.104821 
3203 0.0778542 0.0261839 0.0552839 0.291272 -4.24742 -0.678879 0.0604461 -0.363346 
3244 0.102738 0.0543243 0.0508987 1.03411 -4.33693 0.622155 -0.39554 0.246595 
1605 0.128879 0.0270997 0.000771407 0.67804 -4.27817 0.016557 -0.851035 -0.642575 
1607 0.179036 0.030426 0.9954 0.858596 -4.29684 -0.25467 -1.03442 -0.443019 
1646 0.154965 0.0538519 0.993968 3.48092 -4.35633 -0.858263 0.362787 0.11048 
2406 0.15483 0.0286722 0.0247533 0.528668 -4.34265 -0.165196 -0.38014 0.280975 
2445 0.129431 0.0533408 0.0237747 0.553856 -4.31557 0.120586 0.365002 -0.234343 
2447 0.177053 0.0543141 0.0241981 0.231491 -4.33858 0.365541 0.145898 0.146807 
3205 0.128432 0.0286223 0.0535155 0.271202 -4.33144 -0.0628426 -0.0991405 0.16523 
3207 0.178187 0.0285408 0.0554477 0.482311 -4.30449 -0.647356 0.378542 -1.07585 
3246 0.152841 0.0539888 0.0535968 0.176539 -4.3281 0.290648 -0.168961 -0.515899 
1609 0.226262 0.0298842 0.995441 0.311965 -4.33353 -0.486624 -0.756014 -0.00609909 
1648 0.202128 0.0558891 0.995394 0.159026 -4.32375 -0.22603 -0.208844 -0.35831 
2408 0.20168 0.0294888 0.0234753 0.400898 -4.34099 0.171375 0.041134 0.41401 
2449 0.225858 0.053952 0.0248462 0.318817 -4.35776 -0.18617 0.536574 -0.288756 
3209 0.225888 0.0291639 0.0528956 0.0880244 -4.33373 0.166 0.462468 -0.441822 
3248 0.201515 0.0549419 0.0543337 0.370657 -4.34894 -0.406522 -0.384431 -1.09503 
1611 0.27319 0.0255211 0.994947 1.71379 -4.19171 0.618116 1.5147 0.912143 
1650 0.248861 0.0531976 0.995949 0.591127 -4.31018 0.0495766 0.607639 -0.10624 
2410 0.250698 0.0282434 0.0222802 0.673796 -4.30927 -0.00983426 0.157971 1.32388 
2451 0.273778 0.0549567 0.0215796 0.934243 -4.34075 0.131018 -0.634881 0.871666 
2411 0.276508 0.00389503 0.0277838 1.43891 -4.30398 -1.08514 -0.190002 -0.75296 
3211 0.273878 0.0292798 0.0540087 0.315588 -4.31012 0.0263486 0.397843 -0.475058 
3250 0.249869 0.0540461 0.0512006 0.32843 -4.34154 0.289808 0.419301 0.32139 
1613 0.322363 0.0269256 0.997254 0.820961 -4.23108 0.950192 0.0643467 0.806549 
1652 0.29929 0.0501396 0.997839 1.54996 -4.16592 -0.350933 0.704518 0.188897 
1654 0.35029 0.0546385 0.994675 4.44167 -4.32411 0.232778 -0.221181 -0.0935215 
1612 0.2986 0.00267206 0.998449 0.401277 -4.32541 -0.150063 0.368203 -0.195589 
2412 0.29804 0.0291373 0.026425 0.555132 -4.2784 0.22108 -0.539163 -0.239074 
2414 0.349464 0.0302192 0.0249081 0.580489 -4.3557 -0.401591 -0.502887 -0.264219 
2453 0.324205 0.0548627 0.026728 0.897484 -4.28713 0.198176 -0.310866 -1.41691 
3213 0.323457 0.0297464 0.0543084 0.233103 -4.37704 0.281176 -0.562077 -0.110786 
3252 0.29864 0.0540711 0.0515856 0.400511 -4.33567 -0.503035 0.369776 0.770792 
3254 0.350141 0.0532948 0.0542311 0.277689 -4.30194 -0.694642 0.094505 -0.582208 
1615 0.375625 0.0283903 0.998428 0.359945 -4.30438 -0.065624 0.319288 -0.636443 
1656 0.402293 0.0556888 0.995828 0.584426 -4.2447 -0.0147621 -0.632461 0.200448 
2416 0.399938 0.0272039 0.0235093 0.800706 -4.2741 0.715067 0.91731 0.589977 
2455 0.376504 0.053688 0.0245029 0.375391 -4.321 -0.173086 0.356044 -0.388875 
1616 0.400945 0.00213397 0.996857 0.354497 -4.32256 -0.560984 0.0694844 -0.369556 
3215 0.374449 0.0286859 0.0517325 0.554531 -4.36573 0.126054 -0.11111 0.615304 
3256 0.399943 0.0530707 0.0549439 0.374463 -4.32566 0.406494 -0.0362043 -1.14367 
1617 0.42815 0.0296742 0.992959 4.75127 -4.34715 -1.21283 -0.0285723 0.602481 
1658 0.450251 0.0542023 0.993675 1.21073 -4.27245 0.490688 -0.29199 0.596426 
2418 0.448236 0.0272282 0.0262329 0.591883 -4.31069 0.526174 0.787941 -0.307811 
2457 0.425221 0.0533323 0.0261672 0.325222 -4.3421 -0.252326 -0.0712934 -0.529844 
3217 0.425419 0.0282945 0.0550083 0.447138 -4.30813 -1.16163 -0.714649 0.147184 
3258 0.448186 0.0516633 0.0542665 0.417443 -4.30175 0.307915 0.757929 0.747122 
1619 0.474435 0.0286113 0.999555 0.531132 -4.33417 -0.25934 -0.443451 0.0584774 
1621 0.524144 0.0270189 0.00451125 0.322284 -4.30045 -0.0474847 -0.200936 0.381029 
1660 0.498005 0.0530703 0.000871884 1.31631 -4.26956 0.522659 -0.845605 0.0203525 
2420 0.496911 0.0274052 0.0301366 0.387779 -4.33834 0.861107 0.285862 -0.186882 
2459 0.472917 0.0533938 0.0285041 0.455817 -4.30718 -0.120582 -0.430999 -0.471665 
2461 0.523315 0.0508214 0.0331215 0.383229 -4.32537 -0.489581 0.473394 -0.529632 
3219 0.472483 0.0268972 0.056516 0.216394 -4.3238 0.269438 0.847176 0.363416 
3221 0.521242 0.0266261 0.0614623 0.119899 -4.36828 -0.153383 0.0219861 0.00768906 
3260 0.498179 0.0508499 0.0592238 0.48386 -4.35402 -0.671842 0.449946 0.040602 
1623 0.573424 0.0257896 0.00696307 0.180261 -4.3469 -0.330902 -0.0337596 0.208939 
1662 0.549072 0.0498649 0.00707204 0.416724 -4.3615 0.0669466 0.359393 -0.424654 
2422 0.546515 0.0248276 0.0356739 0.659578 -4.32023 0.561707 1.00231 -0.410576 
2463 0.571984 0.0517191 0.0364369 0.384158 -4.33452 -0.480804 -0.518616 0.404794 
3223 0.568826 0.0284277 0.0654788 0.746969 -4.34117 0.334682 -0.661348 0.326378 
3262 0.544793 0.0515313 0.0637736 0.130843 -4.36915 0.277245 0.118849 -0.316774 
3222 0.545928 0.0018061 0.0643306 0.241464 -4.34401 -0.0387406 -0.171146 -0.0074943 
1625 0.619908 0.0242769 0.00887605 0.577195 -4.33233 0.609745 0.0300686 1.26508 
1664 0.597115 0.0493059 0.00867206 0.213822 -4.35103 -0.341004 0.0951657 0.550135 
2424 0.593988 0.0249081 0.0387709 0.599751 -4.29076 0.673188 0.852313 -0.852083 
2465 0.618015 0.0487806 0.0399364 0.432965 -4.35443 0.468669 0.282217 0.0633096 
3225 0.618866 0.0259344 0.0680529 0.341521 -4.31914 -0.0613431 -0.58413 0.795648 
1627 0.668156 0.0268042 0.0153105 0.453691 -4.30583 -0.092966 -0.985677 -0.109544 
1666 0.643836 0.0498292 0.0141192 0.185092 -4.36359 0.00897334 -0.15536 -0.332161 
1668 0.692281 0.0501183 0.0174682 0.134928 -4.35386 -0.405721 0.0574153 0.170467 
2426 0.644025 0.025015 0.0415743 0.281024 -4.34539 -0.0912404 -0.197087 0.226484 
2428 0.690897 0.0243279 0.0462159 0.510608 -4.31371 -0.420901 -0.201002 0.173143 
2467 0.667024 0.0507674 0.0447694 0.172564 -4.37182 0.123341 -0.322994 0.127133 
3227 0.667696 0.0234703 0.0743098 6.20979 -4.12208 -0.693669 0.490201 -0.39232 
3266 0.641345 0.0495222 0.0709554 0.288582 -4.34964 0.779726 0.440945 0.221005 
3226 0.642942 0.998874 0.0696503 4.68168 -4.24556 0.0119929 0.493361 0.903717 
1629 0.715454 0.024964 0.0195559 0.269576 -4.3207 -0.0905322 0.333493 -0.413858 
1670 0.738914 0.0502429 0.0207037 0.338404 -4.36205 -0.425986 -0.401196 -0.233702 
2430 0.761438 0.0262433 0.0191172 0.578968 -4.34807 0.302657 -0.431067 1.09821 
2469 0.714359 0.0477856 0.048644 0.613845 -4.35436 -0.137479 0.470057 0.394181 
3229 0.737177 0.0237152 0.0505498 0.518231 -4.37433 -0.22902 0.262668 -0.120036 
3270 0.760828 0.0496248 0.0496343 0.40864 -4.31783 0.849423 0.103655 0.309552 
1631 0.786909 0.0260333 0.993321 0.195465 -4.34658 -0.0484133 -0.444511 -0.538418 
1672 0.811225 0.0505773 0.993901 0.207969 -4.38477 0.178028 -0.34011 0.285029 
2432 0.808868 0.0260998 0.0224888 0.326124 -4.34438 0.764655 -0.486962 -0.104357 
2471 0.785491 0.0503258 0.0228181 0.338116 -4.35215 0.23641 -0.232662 -0.354498 
1633 0.834749 0.0249637 0.993694 0.170209 -4.36612 -0.330278 0.451382 0.0706612 
2473 0.834482 0.0503491 0.0239644 0.250182 -4.33561 -0.04686 0.11567 -0.575794 
1632 0.810666 0.00141917 0.992487 0.236661 -4.33408 -0.340257 -0.403109 0.14451 
2433 0.833639 0.00197302 0.022752 0.147744 -4.35356 -0.103949 -0.167496 0.121113 
3231 0.786048 0.0264672 0.0521405 0.401767 -4.34907 -0.484819 -0.189411 -0.800061 
3232 0.809429 0.00177167 0.0536374 0.497463 -4.3327 0.0199427 -0.258406 -0.914978 
3272 0.810235 0.0497326 0.0496084 0.588464 -4.31322 0.235394 1.08159 0.925354 
1635 0.882917 0.0259115 0.993618 0.272881 -4.32831 0.0702322 0.108734 0.555558 
1674 0.858611 0.0507446 0.994853 0.131429 -4.38754 0.0215113 -0.191029 0.0912186 
2434 0.858182 0.0250806 0.0234259 0.365384 -4.33928 0.394493 0.897708 -0.585901 
2475 0.882842 0.0519034 0.0236742 0.132787 -4.35023 -0.432496 -0.428259 -0.187578 
1634 0.858368 0.000632886 0.993708 0.197135 -4.37506 0.457394 -0.163525 0.177979 
3235 0.88288 0.0291174 0.0524855 0.603379 -4.34408 -0.454068 -0.588122 -0.103809 
3274 0.858036 0.0516611 0.0512794 0.217087 -4.35015 -0.180343 -0.221232 0.267896 
3234 0.859349 0.00290028 0.0507216 0.491864 -4.34489 -0.335151 -0.520954 0.543002 
1637 0.930758 0.0272398 0.997958 0.306599 -4.34605 -0.261173 -0.309482 -0.234446 
1676 0.905687 0.0521656 0.995324 0.478054 -4.34316 0.534241 -0.561657 0.401967 
1636 0.907257 1.00038 0.996076 0.2194 -4.35173 0.761815 0.278123 0.0489779 
2436 0.90641 0.026461 0.0229384 0.416823 -4.30403 0.0860487 0.635359 0.0672848 
2477 0.929682 0.0513648 0.0275905 0.451887 -4.28811 0.369271 0.141339 -0.874845 
3237 0.929532 0.0265544 0.0532582 0.258654 -4.34298 0.427354 0.20718 0.398076 
3276 0.906536 0.0524634 0.0519867 0.248646 -4.28093 -0.363336 -0.636998 0.712742 
3236 0.905103 0.00393533 0.050569 1.05864 -4.2859 0.641134 -0.993662 1.14438 
1640 0.0030632 0.0508849 0.999208 0.14509 -4.34201 -0.06031 0.399066 0.17135 
1639 0.977273 0.0266222 0.996542 0.903444 -4.32445 0.639241 -0.139704 0.862147 
1678 0.954026 0.0508035 0.000705648 0.731325 -4.32175 0.247336 0.0958872 -1.13838 
2400 0.00145349 0.0257348 0.0270613 0.365598 -4.35901 0.38458 0.133194 -0.327508 
2438 0.954598 0.0263406 0.026891 0.243204 -4.35409 0.00563131 0.0388735 0.381169 
2479 0.979235 0.0506443 0.027138 0.234462 -4.33603 -0.0483479 0.266931 -0.0625633 
1638 0.954179 0.00394228 0.9978 0.932023 -4.31458 0.0354572 -1.35742 -0.0636604 
3240 0.00376626 0.049287 0.0556601 0.335191 -4.36262 -0.402739 0.568921 0.162059 
3239 0.978069 0.0271685 0.0556453 0.261312 -4.33476 0.111434 -0.453672 0.130423 
3278 0.95558 0.0517576 0.054381 0.231846 -4.35232 -0.792512 0.11082 0.153374 
1641 0.0284759 0.0747761 0.99957 0.392897 -4.30863 -1.03591 0.0132734 0.200251 
1682 0.0511628 0.101595 0.00185076 1.62403 -4.24994 0.255212 -0.301007 0.409432 
2442 0.0514035 0.0763077 0.0272274 0.671804 -4.24426 0.105676 -0.641153 0.110357 
2481 0.025424 0.0988686 0.0282152 2.09429 -4.26863 0.625699 0.785344 -0.391708 
2440 0.0033808 0.0746246 0.0288348 0.322433 -4.35501 -0.509847 0.263623 -0.506577 
3241 0.0279936 0.0739106 0.0554619 0.635481 -4.2637 -0.0412957 0.817334 -0.157664 
3282 0.0533722 0.102536 0.051486 0.948364 -4.35886 -0.18431 0.131526 0.239098 
3280 0.00382604 0.101526 0.0554559 0.219677 -4.26535 -0.65773 0.0745338 0.0301961 
1643 0.077295 0.0747952 0.00411752 4.33871 -4.19564 -0.773634 0.304878 -0.406181 
1684 0.105365 0.106216 0.991738 5.70631 -4.3633 0.00476921 -0.208262 0.554656 
2444 0.104615 0.0797084 0.022988 3.86879 -4.34176 0.436288 0.0520689 -0.573831 
2483 0.0802648 0.105022 0.0241999 4.16654 -4.29387 -0.604846 -0.800416 -1.35005 
3243 0.0772584 0.0787659 0.0509442 1.15882 -4.41435 0.295936 -0.429391 0.13651 
3284 0.102668 0.101925 0.0528107 0.324499 -4.33612 0.63795 0.0694903 0.231309 
1645 0.130365 0.0822637 0.993144 4.75718 -4.34706 -0.0682774 -0.889317 0.0301897 
1647 0.17718 0.0809859 0.995427 0.368441 -4.29242 0.753026 0.0637815 -0.271744 
1686 0.15379 0.106465 0.994041 0.27578 -4.30975 0.00629213 0.718587 -0.0685652 
2446 0.152926 0.0803858 0.0220716 0.304172 -4.33868 0.0446965 -0.294321 0.613474 
2485 0.129009 0.106192 0.023633 0.494921 -4.30323 -0.444054 -0.962395 -0.379573 
3245 0.12878 0.0775584 0.0508557 0.504422 -4.304 -0.13858 0.798517 0.320996 
3247 0.178065 0.0785263 0.0515664 0.383989 -4.33296 -0.689925 0.195043 0.0473274 
3286 0.15307 0.104163 0.0527838 0.17082 -4.36694 -0.13755 -0.17049 -0.19994 
2487 0.177579 0.105381 0.0222349 0.332708 -4.34928 -0.0592221 0.0520981 0.682435 
1649 0.225641 0.08214 0.995373 0.305625 -4.2872 0.633276 -0.142884 -0.327229 
1688 0.201874 0.108502 0.994644 0.325394 -4.31294 0.118871 -0.230647 0.297227 
2448 0.202414 0.0800294 0.02244 0.435664 -4.33032 -0.300695 0.134941 0.509619 
2489 0.226531 0.105398 0.0243496 0.154132 -4.35668 -0.428251 0.327866 0.0331849 
3249 0.225266 0.0796283 0.0540672 0.369194 -4.33335 0.567715 0.0953774 -0.916461 
3288 0.199999 0.102716 0.0527669 0.781594 -4.31278 0.541964 1.15767 -0.0586359 
1651 0.273596 0.0793981 0.996163 0.556373 -4.1765 0.278749 0.821973 0.29626 
1690 0.251955 0.108827 0.995368 0.970866 -4.29324 -0.512844 -1.049 0.295964 
2450 0.249803 0.0806811 0.022704 0.377593 -4.35855 -0.13853 -0.120149 0.494523 
2491 0.275021 0.105291 0.0246745 0.315201 -4.34695 0.413075 -0.17124 -0.701119 
3251 0.275162 0.0804059 0.0522157 0.15903 -4.37348 -0.285678 -0.613939 0.00858566 
3290 0.251216 0.105198 0.0529407 0.157296 -4.34999 -0.496782 -0.589131 -0.18567 
1653 0.326253 0.0807862 0.992956 3.89762 -4.34029 0.138685 -0.18193 -0.0793949 
1692 0.303296 0.105151 0.994864 3.30428 -4.32411 -0.422053 0.404336 -0.346012 
1694 0.351441 0.105455 0.995967 0.378199 -4.30363 0.257005 0.219395 -0.182923 
2452 0.299499 0.0795456 0.022832 0.545609 -4.40024 0.44284 -0.0264866 -0.204924 
2454 0.349307 0.0784013 0.0223857 1.00271 -4.32476 0.320084 -0.0679168 0.77798 
2493 0.326936 0.104247 0.0259636 0.547329 -4.26514 -0.413474 -0.564755 -1.03252 
3253 0.324317 0.0789255 0.0540068 0.259578 -4.34389 0.0832986 -0.166251 0.0725234 
3292 0.30046 0.103886 0.052384 0.251324 -4.35855 0.0778915 -0.229442 -0.0161273 
3294 0.35068 0.101367 0.0536836 0.308227 -4.36563 -0.115118 -0.119128 0.202982 
1655 0.375868 0.0809128 0.996934 0.649671 -4.28874 0.615343 -0.321934 0.101016 
1696 0.401809 0.105374 0.997204 0.471894 -4.31408 -0.444193 -0.241038 -0.101092 
2456 0.401908 0.0803693 0.024026 0.854191 -4.31548 -0.678104 -0.84326 0.617851 
2495 0.375001 0.103395 0.0264904 0.325373 -4.30419 0.497145 -0.0503905 -0.420575 
3255 0.374837 0.0772421 0.051521 0.583152 -4.35645 0.146579 0.440723 0.434605 
3296 0.399931 0.102293 0.0555412 0.138571 -4.34482 -0.216608 0.235664 -0.165934 
1657 0.425878 0.078318 0.995554 0.689607 -4.28479 -0.331708 0.526783 0.0839972 
1698 0.448561 0.1029 0.99815 0.694245 -4.23 0.0777825 1.23298 -0.439492 
2458 0.449267 0.077955 0.0246391 0.284258 -4.33838 -0.0427352 -0.383291 0.769514 
2497 0.425433 0.102785 0.0246813 0.511248 -4.32391 0.0779956 0.633645 0.811225 
3257 0.424473 0.0795651 0.0548651 0.651592 -4.32704 0.355427 -1.26693 -0.185307 
3298 0.449204 0.101841 0.0565391 0.138419 -4.34949 0.0176468 -0.338378 -0.101207 
1659 0.473183 0.0776843 0.994748 4.00855 -4.42887 0.698697 0.0418913 0.0884707 
1661 0.525541 0.0760617 0.00255795 0.759078 -4.27404 -0.572342 -1.14307 0.285609 
1700 0.498638 0.100958 0.997973 4.07334 -4.36524 -0.157859 0.168943 -0.177666 
2460 0.497525 0.0756509 0.0282675 0.445365 -4.29062 0.218488 0.651402 0.470572 
2499 0.472208 0.101788 0.0276499 0.297553 -4.32317 0.847376 -0.238411 -0.536587 
2501 0.520575 0.101038 0.0297511 0.494084 -4.31771 0.439296 0.169576 0.173043 
3259 0.473302 0.0765284 0.0576777 0.204661 -4.33123 -0.030741 0.291924 -0.423398 
3261 0.520803 0.0769976 0.0622172 0.264575 -4.36864 -0.353596 -0.0423324 -0.637322 
3300 0.497355 0.101865 0.0572305 0.459423 -4.32337 -0.699945 -0.466531 0.583868 
1663 0.572772 0.0740117 0.00792182 0.359219 -4.31803 -0.52852 0.394213 -0.182271 
1702 0.547924 0.0987988 0.0057219 0.594282 -4.24396 0.763851 0.47484 -0.410302 
2462 0.545831 0.0766958 0.0361071 0.466954 -4.33613 0.329468 -0.196858 -0.38311 
2503 0.570031 0.101677 0.0365882 0.333178 -4.35504 0.27434 -0.56137 -0.274179 
3302 0.544308 0.102404 0.0635597 0.355558 -4.36788 -0.141309 -0.360941 -0.560518 
1665 0.620521 0.0735733 0.0133404 0.380007 -4.33313 0.347056 0.549605 -0.754486 
1704 0.596515 0.097965 0.0118474 0.512067 -4.26858 -0.16429 0.733058 -0.227611 
2464 0.595837 0.0751374 0.0378316 0.289318 -4.28131 -0.677824 -0.235405 1.13202 
2505 0.619143 0.0992037 0.0413285 0.233202 -4.3257 0.437585 0.19445 -0.0490546 
1706 0.645141 0.100113 0.0129092 0.641494 -4.33278 -1.01361 -0.848727 0.611785 
2466 0.642356 0.0745415 0.0434771 0.206073 -4.34135 0.402585 0.0464729 -0.0297417 
3304 0.592646 0.102522 0.0661496 0.980202 -4.31909 0.632444 -1.12702 0.650764 
3306 0.641148 0.0994277 0.0732881 0.359864 -4.31879 0.578768 0.133109 -0.331547 
1667 0.666756 0.0746509 0.0144646 0.438854 -4.37475 0.800333 0.0697026 0.6912 
1708 0.691412 0.0998316 0.0179436 0.20446 -4.39826 0.303617 0.0154402 -0.0649887 
2468 0.690899 0.0751603 0.0465204 0.225848 -4.37134 0.032843 0.00924047 -0.0958401 
2507 0.665815 0.0991656 0.0452421 0.312487 -4.39495 0.273871 -0.370632 0.106361 
3267 0.666832 0.0737976 0.0756481 0.83838 -4.34067 -0.80596 0.80431 -0.58024 
1669 0.715266 0.0737866 0.0193682 0.166632 -4.32957 -0.33542 0.177004 0.0177672 
1710 0.76182 0.0983583 0.992695 0.533132 -4.37466 0.762476 0.426055 0.289409 
2470 0.763188 0.0745923 0.0226006 0.375003 -4.34677 -0.216344 -0.0936051 -0.784422 
2509 0.738734 0.0982284 0.0217074 0.674604 -4.30074 0.405287 0.835275 -0.707414 
1671 0.787331 0.0727119 0.993391 0.677964 -4.33021 -0.694148 1.17149 -0.229177 
1712 0.810158 0.099554 0.99246 0.234937 -4.33103 0.530913 -0.14214 0.447518 
2472 0.809712 0.0760969 0.0218978 0.270432 -4.36639 0.50559 -0.361725 0.363112 
2511 0.787131 0.100542 0.0228183 0.29794 -4.31828 -0.245987 -0.542863 -0.727072 
1673 0.83555 0.0752473 0.994768 0.327542 -4.34235 -0.612662 -0.355405 -0.505162 
2513 0.834702 0.100684 0.0209601 0.341632 -4.34764 -0.379331 0.343996 0.673407 
3271 0.786325 0.0746886 0.0511831 0.29683 -4.36658 0.252819 0.161834 0.0453726 
3273 0.833954 0.0781699 0.0507688 0.668921 -4.34675 0.0796765 -1.13372 0.207014 
1675 0.882443 0.0760966 0.995922 0.20333 -4.36112 0.0776125 -0.431909 -0.692711 
1714 0.858935 0.0991348 0.99437 0.208275 -4.33353 -0.378088 0.486539 -0.310119 
2474 0.858087 0.076006 0.0229304 0.141604 -4.32912 0.267931 -0.129868 0.709824 
2515 0.881901 0.100387 0.0239142 0.069658 -4.35577 -0.0267048 0.332818 0.00615863 
3275 0.883122 0.0763246 0.052283 0.154631 -4.34346 -1.01818 0.197587 0.0733892 
3314 0.858792 0.10125 0.0529963 0.259114 -4.37774 -0.0562852 -0.0305361 -0.520511 
1677 0.92973 0.0754982 0.998537 0.435981 -4.35911 0.416716 -0.0360377 -0.326126 
1716 0.905462 0.0999905 0.995551 0.204302 -4.36168 0.394919 -0.0732432 -0.0156228 
2476 0.906039 0.0770437 0.0262166 0.329324 -4.31124 0.376091 -0.000877439 -0.925559 
2517 0.930441 0.102038 0.0244879 0.212788 -4.38343 0.173649 -0.420068 0.183102 
3277 0.93016 0.0773907 0.0537734 0.16857 -4.35922 0.427385 -0.215461 -0.261423 
3316 0.906112 0.101685 0.0533053 0.160576 -4.36633 0.208745 0.13845 -0.13072 
1680 0.0023518 0.0998889 0.998255 0.332681 -4.33174 0.247824 0.210131 0.727782 
1679 0.977088 0.0759002 0.000168309 0.845718 -4.29593 1.18726 -0.314957 -0.524937 
1718 0.955148 0.101385 0.996847 0.338354 -4.35163 -0.396218 -0.557957 0.550217 
2478 0.954497 0.0756175 0.0263364 0.165137 -4.31245 -0.315344 0.700083 0.449773 
2519 0.979028 0.10131 0.026462 0.107402 -4.35625 0.13165 -0.124335 0.196137 
3279 0.978489 0.0766452 0.0562836 0.330969 -4.35181 0.731259 -0.0119585 -0.549557 
3318 0.955308 0.101162 0.0541186 0.166761 -4.35063 -0.198963 0.603822 0.351427 
1681 0.0282564 0.125741 0.00126509 1.26811 -4.31453 -1.01239 0.336931 -0.0710848 
1721 0.0264196 0.177882 0.995305 0.572369 -4.35072 0.189986 0.137427 -0.351112 
1722 0.0525822 0.154391 0.994456 1.05985 -4.32149 0.589059 -0.308219 0.305264 
2482 0.0550528 0.129336 0.0233783 5.09414 -4.26407 -0.11 -0.0893191 0.171864 
2521 0.0263181 0.155002 0.0231971 1.93449 -4.27156 1.20818 -0.970788 0.311801 
2522 0.0527625 0.177281 0.0250138 0.188503 -4.33712 0.509136 0.0322923 -0.719059 
3281 0.0294567 0.128231 0.0515138 0.982786 -4.37599 -0.0857624 -0.467768 -0.186152 
3321 0.0289048 0.177147 0.0540677 0.222228 -4.35828 -0.368104 -0.183333 0.393537 
3322 0.0527766 0.153078 0.053061 0.368886 -4.32801 0.493519 -0.310304 -0.387891 
3320 0.00522531 0.152532 0.0520791 0.740599 -4.32813 -0.723686 -0.050523 0.71612 
1683 0.0797793 0.128535 0.992039 4.73575 -4.34639 0.198612 0.999302 0.482563 
1723 0.0790385 0.179737 0.993037 1.23956 -4.26188 -0.622127 -0.836928 1.1332 
1724 0.103902 0.155701 0.997367 0.784066 -4.30092 -0.0565084 -0.170803 -0.779962 
2484 0.102594 0.128225 0.0228455 0.432244 -4.32263 0.374264 0.516884 0.47474 
2523 0.0780855 0.152549 0.0230142 0.399154 -4.31149 0.148823 0.31714 0.427118 
2524 0.101644 0.178014 0.0281941 0.929043 -4.28014 0.0466066 -0.017706 -1.10495 
3283 0.0793796 0.125235 0.0536732 1.13429 -4.27307 -0.767391 1.33517 -0.0612748 
3323 0.0778685 0.177124 0.0540875 0.278998 -4.32052 -0.470553 -0.371385 0.22305 
3324 0.102072 0.151701 0.0551983 0.349081 -4.33294 0.16836 0.304453 -0.911857 
1685 0.127422 0.131894 0.995633 0.734515 -4.31603 0.742102 -0.317264 -0.512878 
1725 0.126864 0.180685 0.998781 0.842764 -4.34611 0.508297 -0.872132 -0.642487 
1726 0.152914 0.155942 0.99618 0.194303 -4.349 -0.779782 0.176625 0.0652013 
1727 0.17567 0.179787 0.996718 0.741292 -4.32323 0.934972 0.237644 0.344177 
2486 0.153166 0.128797 0.0237686 0.415579 -4.34555 -0.288549 0.61776 0.239125 
2525 0.128568 0.153762 0.0260854 0.395909 -4.31988 -0.485873 -0.0447239 -0.0689089 
2527 0.176653 0.154614 0.026687 0.494209 -4.31244 0.1375 0.82107 -0.220318 
2526 0.153454 0.179671 0.0268637 0.623465 -4.32118 -1.00409 -0.474532 0.0874518 
3285 0.126048 0.126661 0.0528787 0.690279 -4.32742 0.632198 0.853459 0.658501 
3287 0.176061 0.130127 0.0534275 0.317137 -4.31297 0.336128 -0.463845 0.36278 
3325 0.125083 0.17803 0.0535022 0.648642 -4.33748 0.831448 0.141405 0.693018 
3326 0.151598 0.15339 0.0538164 0.185376 -4.32168 -0.0328965 0.0910493 0.555174 
3327 0.176652 0.179417 0.0563511 0.312436 -4.32855 0.0553169 -0.401016 -0.249757 
1687 0.17762 0.133739 0.996754 0.565232 -4.30752 0.103534 -0.34197 -1.07111 
1689 0.227179 0.131058 0.995348 0.377618 -4.25883 -0.613606 0.977657 0.487147 
1728 0.203235 0.158062 0.996 0.530824 -4.3086 -0.662308 -0.743248 -0.362381 
1729 0.228051 0.180402 0.996045 0.224412 -4.32035 0.691375 -0.133835 0.0527174 
2488 0.20017 0.130966 0.0253802 0.66823 -4.33513 1.00843 0.00566473 0.0070938 
2528 0.201902 0.1789 0.024988 0.289283 -4.28121 -0.264827 0.56355 0.628449 
2529 0.2269 0.154354 0.0235352 0.330594 -4.32574 -0.0124012 0.555166 0.653337 
3289 0.225985 0.12977 0.0521409 0.280803 -4.3298 -0.51463 -0.218346 0.405188 
3328 0.202468 0.157335 0.0537072 1.44397 -4.24445 -0.264581 -1.62639 -0.00370492 
3329 0.227674 0.179035 0.0538077 0.168081 -4.36939 0.0439845 -0.103038 0.184412 
1691 0.277414 0.131559 0.997945 0.5855 -4.25235 0.0591639 -0.092279 -1.0773 
1730 0.252228 0.155003 0.996302 0.2315 -4.33657 -0.0667444 0.702655 0.188244 
1731 0.277665 0.178024 0.99888 1.07367 -4.32691 0.395447 0.69874 -0.783701 
2490 0.250622 0.13075 0.0244084 0.248566 -4.34925 0.493735 -0.197063 0.275005 
2530 0.252878 0.179397 0.0260015 0.131828 -4.36148 -0.182628 -0.245404 -0.182042 
2531 0.277573 0.153625 0.0264482 0.242076 -4.29246 0.0802364 0.111288 -0.121679 
3291 0.275562 0.128391 0.0534242 0.181411 -4.36008 0.514717 0.268893 -0.134112 
3330 0.251881 0.15313 0.0537191 0.104818 -4.3434 -0.177637 0.712298 -0.0794433 
3331 0.27866 0.177054 0.0535382 0.584379 -4.33356 -0.481326 0.345145 0.756681 
1693 0.329128 0.130836 0.997191 0.59055 -4.29829 -0.699776 -0.622317 -0.823167 
1732 0.303078 0.154006 0.995246 0.448684 -4.32588 -0.298088 0.171389 0.167611 
1733 0.32663 0.177404 0.997952 0.779532 -4.33637 0.647359 0.746448 -0.274688 
1734 0.353031 0.15407 0.996564 0.380913 -4.34817 -0.0083081 0.24158 0.467467 
2492 0.300906 0.128891 0.0242897 0.436343 -4.30468 0.82475 -0.148551 0.207554 
2494 0.352151 0.128379 0.0253145 0.197087 -4.33823 0.0875276 0.0117969 0.235967 
2532 0.303019 0.178635 0.0255184 0.316484 -4.33517 -0.24447 -0.454888 0.487585 
2533 0.326894 0.153282 0.0257034 0.242832 -4.33188 -0.145103 -0.593295 0.136802 
2534 0.350027 0.176941 0.0275465 0.298733 -4.35034 0.435903 0.450415 -0.157823 
3293 0.326954 0.126104 0.0529777 0.420037 -4.31763 -0.428224 0.412104 0.494766 
3332 0.303513 0.149942 0.0556971 1.45077 -4.29845 -1.09161 0.825201 -0.478479 
3333 0.325851 0.175648 0.0548837 0.387242 -4.35083 0.11631 0.877449 0.442249 
3334 0.350648 0.149588 0.0553585 0.708152 -4.32625 0.371274 1.20879 0.0936909 
1695 0.377997 0.128612 0.998919 0.717052 -4.36823 -0.324347 0.525105 -0.542487 
1735 0.376209 0.179806 0.000621887 0.238413 -4.31897 -0.0268064 -0.124616 -0.491542 
1736 0.40098 0.154779 0.000543696 0.230079 -4.33816 0.020234 0.211795 -0.377891 
2496 0.40136 0.127882 0.0286514 0.321643 -4.34544 -0.251378 -0.0972147 -0.604876 
2535 0.376468 0.153562 0.0279197 0.191705 -4.36873 -0.300562 -0.222506 0.118949 
2536 0.401327 0.177854 0.0301448 0.40902 -4.34532 -0.624628 0.177363 -0.0745862 
3295 0.375314 0.125525 0.0560814 0.295933 -4.36746 0.245152 0.728531 -0.0223699 
3335 0.373944 0.176995 0.0582304 0.291329 -4.33025 0.162424 -0.0404072 -0.536075 
3336 0.399927 0.150815 0.0570625 0.24746 -4.35772 0.020783 0.464457 -0.0288183 
1697 0.424477 0.130697 0.997095 0.491264 -4.29782 0.703665 -0.354825 0.730627 
1737 0.424808 0.180858 0.00117579 0.383767 -4.32104 -0.135315 -0.77188 -0.456026 
1738 0.450508 0.154945 0.000520893 0.362449 -4.32306 -0.812986 0.133087 0.261598 
2498 0.449398 0.127428 0.0286271 0.140679 -4.38144 -0.177748 0.216113 -0.383164 
2537 0.426176 0.152337 0.0280331 0.363228 -4.34094 -0.510726 0.162516 0.2318 
2538 0.448581 0.178171 0.0297338 0.248494 -4.35834 0.0307803 -0.0252545 0.280533 
3297 0.424493 0.125708 0.0572341 0.259031 -4.36767 -0.027848 0.62014 -0.28971 
3337 0.424781 0.17564 0.0577853 0.325046 -4.34548 -0.101546 0.449479 0.437053 
3338 0.449081 0.151595 0.0580856 0.159668 -4.36366 -0.147247 -0.0613574 0.251865 
1699 0.472565 0.130092 0.999569 0.342051 -4.2842 -0.052159 -0.724774 -0.0965234 
1701 0.523023 0.126719 -0.000107502 3.81044 -4.38625 -0.569297 -0.74979 -0.442652 
1740 0.49732 0.15266 0.00159057 0.326071 -4.34706 0.137013 0.419034 0.136505 
1741 0.521016 0.177515 0.0063678 0.426277 -4.35539 0.509041 -0.318808 -0.181874 
2500 0.495818 0.127017 0.0278076 0.594473 -4.33272 0.519148 -0.349346 0.215431 
2539 0.473754 0.154079 0.0312258 0.637467 -4.32716 -0.532374 -0.794967 -0.342509 
2540 0.49709 0.177927 0.0340254 0.378041 -4.31278 0.0274917 -0.59086 -0.624495 
2541 0.521119 0.150083 0.0315909 0.290904 -4.35797 -0.0620359 0.376302 0.0452078 
1739 0.473827 0.178124 0.00372853 0.343968 -4.34469 0.333541 0.284915 -0.37216 
3299 0.472897 0.12524 0.057493 0.509113 -4.35827 0.160955 0.605497 0.53412 
3301 0.519347 0.125273 0.0598274 0.362557 -4.33514 0.641441 0.512721 0.123457 
3339 0.471062 0.177357 0.0602967 0.411313 -4.37409 0.518859 -0.191879 0.355671 
3340 0.495616 0.150731 0.059673 0.379968 -4.35288 0.477357 0.38338 0.291687 
3341 0.520573 0.176193 0.0607733 0.545927 -4.3141 0.593969 -0.699808 0.820273 
1703 0.573068 0.126337 0.00795081 0.63138 -4.2846 -0.37143 -0.819932 0.516674 
1742 0.545666 0.15021 0.00275597 1.55997 -4.36975 0.464373 0.134886 0.314278 
1743 0.570739 0.175176 0.00778351 0.528814 -4.38094 0.247871 -0.0134097 0.015307 
2502 0.545469 0.124671 0.032433 0.346244 -4.35934 -0.0823876 0.338583 -0.05685 
2542 0.546004 0.175781 0.0350532 0.188764 -4.34335 -0.300161 -0.463764 -0.343293 
2543 0.568802 0.150735 0.0350307 0.624456 -4.33741 0.415742 -0.534782 0.215144 
3303 0.56787 0.125739 0.0658506 0.365375 -4.3151 0.478265 -0.0829498 -0.733007 
3342 0.54427 0.149167 0.0618683 0.389359 -4.33252 -0.128915 0.4762 0.572132 
3343 0.568606 0.173725 0.0656842 0.392001 -4.34663 -0.00978857 -0.375698 0.463135 
1705 0.619489 0.1234 0.0143121 0.460299 -4.33551 0.867295 0.527677 -0.570696 
1744 0.597112 0.150104 0.0115974 0.375807 -4.33514 -0.320477 0.320855 0.348259 
1745 0.621517 0.176227 0.0126813 0.641544 -4.28829 -0.553142 -0.224424 0.453791 
2504 0.595813 0.12483 0.0389282 0.493422 -4.26007 -0.845683 0.243009 -0.327807 
2544 0.593861 0.174957 0.0401775 0.229249 -4.36585 0.165709 -0.38897 -0.5179 
2545 0.618957 0.15109 0.0419552 0.410345 -4.36948 0.21481 -0.175185 -0.218 
1746 0.644094 0.149511 0.0149359 0.121174 -4.35771 -0.486473 0.161707 0.112929 
2506 0.643217 0.124753 0.0423907 0.224464 -4.34597 -0.41677 0.0154122 0.675378 
2546 0.64451 0.174789 0.0431451 0.661291 -4.33549 -1.00838 0.552432 -0.165694 
3305 0.618688 0.124708 0.0691651 0.466715 -4.38616 -0.177488 0.198858 0.547333 
3344 0.592179 0.1477 0.0659877 1.17777 -4.3412 0.449967 0.96762 0.82812 
1707 0.66675 0.123818 0.0164216 0.29447 -4.31544 0.942392 0.670317 0.260762 
1747 0.66871 0.175024 0.0174856 0.349753 -4.33873 -0.412506 0.073279 -0.117663 
1748 0.691005 0.149565 0.0190641 0.235392 -4.37098 -0.189154 0.400821 0.188913 
2508 0.689384 0.124891 0.0465918 0.291991 -4.32645 0.670444 0.190324 -0.271826 
2547 0.666008 0.150154 0.0468354 0.34738 -4.34678 0.470846 -0.292759 -0.588749 
2548 0.68997 0.176902 0.0482106 0.325568 -4.35552 -0.172406 -0.317622 -0.56537 
1709 0.715501 0.126444 0.0179554 0.575782 -4.30314 -0.302487 -0.522711 1.21841 
1749 0.714908 0.174638 0.0202425 0.276962 -4.3676 -0.302518 0.674129 0.177236 