ITEM: TIMESTEP
4000
ITEM: NUMBER OF ATOMS
28567
ITEM: BOX BOUNDS pp pp pp
-3.2691348753302734e+00 7.3669134875330414e+01
-1.0593553098102078e+00 7.1459355309809922e+01
7.0558484949912899e+00 6.3344151505009030e+01
ITEM: ATOMS id xs ys zs c_csym c_peratom fx fy fz 
1601 0.0383515 0.0279852 0.989856 0.392156 -4.31303 0.810061 -0.29292 0.639957 
1642 0.0602141 0.0547851 0.992925 0.956164 -4.25719 0.589517 -1.22679 0.338474 
2402 0.0620157 0.0283563 0.0194451 0.613564 -4.31313 -0.50407 -0.0442598 0.532569 
2441 0.037972 0.0528244 0.0236286 1.64017 -4.28286 -0.10979 -0.0584409 -1.12122 
3201 0.0368944 0.0268297 0.0485833 0.39604 -4.32135 0.307631 0.431163 -0.145658 
3242 0.0603169 0.0539218 0.0530444 4.83571 -4.21356 -0.477857 0.366461 -0.625528 
2400 0.0137699 0.0270838 0.0168739 0.562517 -4.29186 0.354742 0.119757 0.879149 
3240 0.0123172 0.0539131 0.046369 0.503555 -4.32693 0.322672 -0.432281 0.28996 
2401 0.0380325 0.00110841 0.0193888 0.665084 -4.28683 0.568219 0.92027 -0.9771 
3202 0.0625208 0.00302981 0.0483647 0.101491 -4.37175 -0.394471 0.06836 -0.170744 
3200 0.0156294 0.00223029 0.0462921 0.199609 -4.30404 -0.278831 0.153341 0.675362 
1603 0.0867022 0.0294333 0.993158 0.390385 -4.31472 -0.566217 -0.103653 0.198623 
1644 0.107953 0.0549705 0.995699 4.56391 -4.21443 0.153242 -1.38671 1.00867 
2404 0.10741 0.0278981 0.0246368 4.66469 -4.27692 0.332331 0.509609 -0.273548 
2443 0.0829777 0.0531013 0.0254506 4.796 -4.23889 0.504984 0.354809 -0.498744 
3203 0.0831365 0.0288606 0.0506766 4.36067 -4.11158 0.653802 -0.386296 -0.160386 
3244 0.111662 0.0588263 0.0428979 5.09716 -4.33988 -0.188973 -0.697491 -0.313608 
1604 0.110413 0.00364666 0.99294 0.141448 -4.29371 0.059055 -0.614962 0.43797 
3204 0.110423 0.00296531 0.0505304 1.09171 -4.15446 -0.816329 -0.602281 -0.657641 
1605 0.132229 0.0276787 0.99732 5.04194 -4.30404 0.220122 0.34558 -0.0270247 
2406 0.160163 0.0344825 0.0132473 5.14935 -4.33602 0.303277 -0.58466 0.664467 
2445 0.137312 0.0592002 0.0140504 5.10726 -4.35787 -0.645561 0.249006 0.0900193 
3205 0.135144 0.0324829 0.0429484 4.34645 -4.37419 -0.0557835 -0.0820896 0.137598 
3246 0.157932 0.0575758 0.0462126 0.211527 -4.33866 0.22728 0.28451 0.0233884 
1606 0.157401 0.00414055 0.993645 4.34679 -4.21107 0.211019 0.237073 0.262164 
2405 0.132924 0.002178 0.0226843 4.7078 -4.22777 -0.00239014 0.35986 -0.0743688 
3206 0.158714 0.00823447 0.044219 4.25256 -4.28061 -0.275267 0.0857347 0.444264 
2447 0.18215 0.0592543 0.017194 0.312254 -4.35247 0.271665 -0.247927 0.372808 
3207 0.181863 0.0330538 0.0488689 0.311831 -4.31756 -0.730681 0.430246 -0.734021 
2408 0.205629 0.0324659 0.0189455 0.218118 -4.35189 -0.194691 0.237676 0.264134 
3248 0.204408 0.0575906 0.0511493 0.122477 -4.36559 -0.117474 -0.307442 0.122651 
2407 0.182531 0.00756946 0.0163458 1.25129 -4.30672 0.155752 0.731527 0.678697 
3208 0.202331 0.00872763 0.0509972 0.702824 -4.34429 0.622253 -0.715382 -0.0867904 
2449 0.228445 0.0558467 0.0238813 0.581447 -4.31219 0.534278 0.578313 -0.603842 
3209 0.226761 0.030561 0.0521461 0.289459 -4.34237 -0.211247 0.360155 0.350363 
2410 0.251296 0.0296131 0.0235097 0.661709 -4.32248 -0.00363001 0.881391 0.681704 
2451 0.273034 0.0574179 0.0289311 1.86093 -4.21049 -0.177551 -0.439916 -1.08152 
2411 0.274262 0.00605532 0.0253127 0.49604 -4.2964 0.591056 -0.205623 -0.444221 
3211 0.272759 0.0302697 0.0542958 0.504511 -4.32064 0.271449 0.0517639 0.0446348 
3250 0.249166 0.0570435 0.0551763 0.547031 -4.27917 -0.214088 -0.374199 -0.459786 
2409 0.228651 0.00722175 0.0225376 0.211344 -4.36371 -0.566888 -0.375029 -0.181132 
3210 0.249325 0.0033994 0.0546933 1.49625 -4.28465 0.631627 1.4957 -0.120504 
1613 0.320004 0.0284539 -0.00177487 5.44482 -4.1355 0.378267 -0.118079 1.03215 
2412 0.298184 0.0296054 0.0285319 1.39659 -4.21848 0.174112 -0.170117 -0.151015 
2453 0.325147 0.0603837 0.0222903 5.12431 -4.31261 -0.289225 -1.35547 -0.116456 
3213 0.322699 0.0320139 0.0554601 0.809584 -4.32405 -0.204439 0.10731 0.234707 
3252 0.298826 0.0566302 0.0523186 1.35174 -4.36805 0.251488 0.333445 0.376874 
2413 0.322774 0.00489892 0.0283011 0.608957 -4.34635 -0.443072 0.308195 -0.452076 
3212 0.297232 0.00547036 0.0578597 0.66996 -4.31702 0.250756 0.517684 -0.363882 
2414 0.344988 0.0312138 0.0247347 1.69108 -4.37963 0.400466 0.500343 0.126447 
3254 0.344438 0.0570975 0.0587372 0.585587 -4.29947 0.21873 -0.940149 -0.418336 
2455 0.370728 0.0541941 0.0300034 0.921906 -4.27475 -0.280691 0.678928 -0.440787 
3215 0.367426 0.0309426 0.0589461 0.566924 -4.34856 0.293122 -0.216379 0.674719 
1614 0.347371 0.00427763 0.998741 0.830316 -4.28642 -0.328153 0.237528 -0.342339 
3214 0.344748 0.00637634 0.0589984 0.204336 -4.36423 0.207883 0.189812 0.109511 
2415 0.369818 0.00607358 0.0301894 0.198281 -4.38209 0.221394 -0.221812 -0.15269 
2416 0.393375 0.0286946 0.0304722 0.665586 -4.32984 0.465511 1.02776 0.220789 
3256 0.393047 0.0538358 0.0625138 0.233918 -4.33311 -0.575776 -0.218945 0.15542 
2457 0.417689 0.0557206 0.0310141 0.631031 -4.30143 -0.254696 -0.707429 0.333757 
3217 0.416075 0.0302816 0.0637692 0.248881 -4.36507 0.130915 0.164147 -0.0568197 
3216 0.392881 0.00635626 0.063657 0.376068 -4.35376 -0.38264 -0.258762 -0.350418 
2417 0.416364 0.00495972 0.033861 0.549547 -4.30921 1.07357 0.428588 -0.181014 
2418 0.441405 0.031018 0.0331241 0.783231 -4.35042 -0.380095 0.062334 0.439024 
3258 0.438094 0.0539908 0.0658417 0.310909 -4.33791 0.342499 -0.0100753 0.524728 
1619 0.467546 0.0337283 0.0077318 0.957552 -4.35527 0.314653 -0.278247 -0.251083 
1660 0.490907 0.0582267 0.00855051 4.53269 -4.15265 -0.383957 -0.519492 0.407519 
2420 0.487909 0.0307116 0.0417855 0.343681 -4.33287 -0.246119 0.632777 0.059296 
2459 0.46391 0.0559305 0.0387464 0.266028 -4.32916 0.306603 -0.302622 -0.197022 
3219 0.460615 0.0303416 0.0697133 0.277011 -4.3583 0.330923 0.103814 0.236904 
3260 0.48435 0.0545438 0.0745926 0.403405 -4.31358 -0.536297 -0.349736 -1.04675 
3218 0.438175 0.00562193 0.0672658 0.393427 -4.36712 0.189349 0.317604 -0.187763 
1620 0.48958 0.00819794 0.0103299 0.284698 -4.32765 0.100007 -0.30947 -0.255969 
2419 0.463829 0.00777616 0.0401286 0.778151 -4.2982 0.471392 -0.623877 -0.774521 
3220 0.48543 0.0058066 0.0720934 0.0364414 -4.35685 0.216598 0.0289403 0.0312193 
1621 0.512363 0.0314747 0.0110874 0.345022 -4.3234 0.0557909 0.188007 0.302663 
2461 0.508936 0.0560353 0.0458929 4.98649 -4.16366 -0.223092 -0.795176 -0.933274 
3221 0.507644 0.0298105 0.0773084 0.477853 -4.33904 -0.45474 -0.209336 -0.985759 
1662 0.556863 0.0303849 0.0141367 0.94313 -4.303 -0.243542 1.40082 0.147635 
2422 0.532698 0.0322129 0.0478319 0.87201 -4.251 -0.544967 -1.16787 -1.71592 
3262 0.554226 0.0539591 0.0464122 0.873895 -4.32932 0.404739 0.902418 -0.212104 
3222 0.531654 0.00580992 0.0753562 0.275979 -4.35394 0.12466 0.30716 0.611483 
2421 0.511299 0.00700049 0.0423705 0.241695 -4.33518 -0.0775864 -0.0110309 0.403125 
1622 0.535423 0.00662864 0.0136249 0.280947 -4.33527 -0.0751513 0.460124 -0.0509252 
1623 0.581315 0.00978943 0.0174426 0.252307 -4.36193 0.35919 -0.252976 -0.171663 
2463 0.579765 0.0567307 0.016524 0.6498 -4.31154 -0.657224 -0.244119 1.2309 
3223 0.577895 0.0320613 0.0496308 0.254058 -4.34359 -0.194166 0.075345 -0.103564 
1664 0.605211 0.0567028 0.991325 0.474296 -4.32826 0.315933 0.707175 -0.472234 
2424 0.60279 0.0333433 0.0212433 0.175118 -4.35301 -0.0200871 -0.275922 -0.255793 
2423 0.557438 0.00704876 0.0458796 0.445744 -4.35043 -0.807206 0.47279 0.403493 
1624 0.605912 0.98707 0.0186767 0.399228 -4.28076 0.318897 -0.986906 0.620292 
3264 0.598675 0.0554864 0.0546226 0.19334 -4.3741 0.277572 0.73342 0.0682361 
1625 0.628306 0.0343385 0.991473 0.372394 -4.33078 0.142653 -0.214785 0.0375246 
2465 0.623745 0.0569099 0.0276316 0.359109 -4.34159 -0.0893201 0.267187 -0.488252 
3225 0.623011 0.0328947 0.0554864 0.225666 -4.30686 -0.351489 -0.297458 0.777865 
1666 0.647964 0.0590715 1 2.17621 -4.19633 -0.241065 0.502517 -0.356091 
2426 0.648252 0.034073 0.0248986 1.16692 -4.26788 -0.173214 -0.487256 0.397512 
1626 0.632297 0.988037 0.990983 0.304216 -4.34654 0.429868 0.0367175 -0.606536 
1627 0.675252 0.0166234 0.0242502 3.91614 -4.32648 -0.560828 -0.130048 0.383317 
1668 0.695779 0.0453705 0.0216841 4.22584 -4.12674 0.296898 -0.328011 -0.0785938 
2428 0.696173 0.020793 0.0548245 2.1968 -4.18482 -0.143449 -0.706669 -0.33532 
2467 0.66914 0.0550534 0.0331232 4.63222 -4.06954 -0.311438 0.839405 0.703125 
1629 0.718808 0.0201364 0.0234134 4.12327 -4.24399 -0.0777295 -0.0387635 0.421696 
2469 0.714769 0.0473621 0.0515366 1.34585 -4.23216 0.709025 0.781629 0.244836 
1628 0.699314 0.99155 0.0255021 0.986469 -4.27555 0.0117627 0.20435 0.837289 
2427 0.652529 0.990846 0.0246578 0.74858 -4.34539 0.749942 -0.287553 0.442432 
1670 0.73947 0.0491918 0.0244736 0.358833 -4.30045 -0.957142 0.542012 -0.299807 
2430 0.759936 0.0258484 0.0247653 4.06426 -4.05558 1.22404 -0.68041 0.294972 
3229 0.73903 0.0248243 0.0527791 4.08833 -4.18644 -0.361859 -0.138775 1.0761 
3270 0.759044 0.0516399 0.0560386 0.597973 -4.21547 0.471075 -1.05552 -0.342089 
2429 0.725176 0.993239 0.997932 6.52568 -4.28618 0.184687 -0.117986 -0.274606 
2432 0.804601 0.0241759 0.0258051 0.502261 -4.32996 -0.126226 0.561256 1.05342 
2471 0.782367 0.0500491 0.0286844 0.681388 -4.28986 0.174578 -0.375375 -0.919519 
3231 0.779833 0.0245099 0.0560274 4.08371 -4.20129 -0.0446708 0.0273736 -0.301976 
3232 0.828002 0.000644194 0.0296057 0.325285 -4.35471 0.249592 -0.141099 -0.685209 
3272 0.804889 0.05115 0.0550961 0.442933 -4.27254 0.0216768 -0.60884 0.723178 
2431 0.780763 0.998586 0.0237546 4.75524 -4.23554 -0.0783555 0.685319 0.131445 
2473 0.829289 0.0495602 0.0293393 0.253802 -4.30446 -0.110687 0.229969 0.297974 
2434 0.877445 0.0244005 0.00324318 0.423089 -4.35983 0.22075 0.616409 0.052182 
2475 0.89926 0.0523578 0.00609346 0.261759 -4.29966 0.366089 -0.439365 -0.0609999 
3235 0.899254 0.0253112 0.0362996 0.332199 -4.31175 -0.779631 -0.20863 0.0721798 
3274 0.876957 0.0507911 0.0320427 0.665381 -4.29661 -1.17633 0.0352935 0.542154 
3234 0.875484 2.29109e-05 0.033179 0.23807 -4.28692 0.55685 0.578418 0.374635 
2435 0.900261 0.000653283 0.00474647 0.137638 -4.33474 -0.237725 0.211216 0.414242 
3233 0.8526 0.0261785 0.0302733 0.277236 -4.32096 0.151518 -0.372 0.32894 
2436 0.921049 0.0252548 0.00941335 0.927157 -4.32438 0.927137 0.879137 -0.429956 
2477 0.945242 0.0499737 0.0111426 0.697024 -4.32362 -0.178937 1.02632 0.718834 
3237 0.944837 0.0273806 0.041932 0.189243 -4.33962 -0.518038 -0.18116 -0.337767 
3276 0.920101 0.0524932 0.0389537 0.429982 -4.34783 0.728881 -0.422383 -0.621873 
3236 0.922056 0.000467079 0.0398944 0.53378 -4.35564 -0.124008 0.757166 -0.452382 
2437 0.946407 1.0044 0.0101251 0.914139 -4.34539 -0.145846 -0.757972 0.761537 
1639 0.991496 0.0265017 0.985656 0.552502 -4.34284 0.66458 -0.103184 0.197674 
2438 0.96972 0.0282668 0.0148515 0.436618 -4.33483 0.00119586 -0.687273 -0.0517856 
2479 0.991398 0.0540253 0.0147177 0.533498 -4.32309 0.37203 -0.420801 0.148042 
3239 0.991306 0.027889 0.0464913 0.283857 -4.30939 -0.103477 0.126946 -0.522331 
3278 0.968285 0.0522066 0.0434368 0.21383 -4.35448 -0.448537 0.308923 -0.243727 
2439 0.992334 0.00231331 0.0183775 0.620003 -4.32447 0.0821669 0.00501735 -1.15608 
3238 0.968467 0.00251794 0.0432611 0.151675 -4.34476 -0.28293 0.250371 0.117136 
1641 0.0384071 0.0780822 0.990852 0.381564 -4.29826 -0.387922 -0.436986 0.389817 
1682 0.0606804 0.103199 0.994456 4.72649 -4.30129 0.100382 0.125038 -0.320331 
2442 0.0610664 0.0793118 0.0219643 4.71437 -4.20971 -0.600999 -0.393829 0.713507 
2481 0.0361922 0.10605 0.0178163 0.978509 -4.2595 0.0498741 -0.276604 0.0519312 
2440 0.0149716 0.0791392 0.0172145 0.39695 -4.33529 -0.526635 -0.372701 -0.337151 
3241 0.0359978 0.0799556 0.047003 0.757952 -4.2123 0.766402 0.254508 0.594695 
3280 0.01286 0.106273 0.0454081 0.422546 -4.30185 0.0786054 -0.745021 0.156555 
1680 0.0143597 0.105035 0.986776 0.606573 -4.32771 -0.378635 -0.512266 -0.0140762 
3282 0.0631393 0.107744 0.0424148 3.73207 -4.33543 -0.20139 -0.137936 0.237108 
1643 0.0848556 0.0778594 0.998003 4.98111 -4.24168 0.0479771 -0.394887 -0.462993 
2444 0.11269 0.0839575 0.0141552 4.80601 -4.3334 0.608573 0.497072 0.00195984 
2483 0.089181 0.108424 0.013873 4.53592 -4.3615 -0.362906 0.119092 -0.0162947 
3243 0.0886182 0.0829828 0.044535 4.18973 -4.36699 -0.546445 0.0426935 -0.564276 
3284 0.110218 0.108692 0.0459136 0.338574 -4.34581 0.207951 -0.388143 -0.115593 
2446 0.159455 0.0853729 0.0172369 0.293406 -4.34914 -0.136655 -0.40936 0.235657 
2485 0.13554 0.110041 0.0175921 0.298006 -4.33755 0.180838 -0.470431 -0.507366 
3245 0.134079 0.0834411 0.0463569 0.126298 -4.30664 0.0580797 0.153772 -0.814321 
3286 0.157638 0.10789 0.0519444 0.753761 -4.31102 0.111602 0.236468 -1.43236 
3247 0.181177 0.082748 0.050226 0.134663 -4.39382 0.143422 0.114459 -0.00790542 
2487 0.182733 0.109952 0.0199304 0.367174 -4.33219 0.0320522 -0.814313 0.169741 
2448 0.207226 0.0815803 0.0214468 0.665345 -4.34264 -0.454897 1.07528 -0.165829 
3288 0.204296 0.108411 0.052641 0.349476 -4.32082 0.118586 -0.964861 -0.469641 
2489 0.23022 0.108397 0.0233868 0.185512 -4.33842 -0.523542 -0.0765737 0.203441 
3249 0.227679 0.08275 0.0537396 0.277242 -4.30245 -0.204893 -0.249359 -0.126137 
2450 0.250808 0.0835491 0.0249807 0.593035 -4.31948 0.221962 -0.50231 -0.431558 
2491 0.276765 0.107102 0.0230561 0.472318 -4.35929 -0.406432 0.234643 0.460732 
3251 0.274365 0.0814041 0.0537503 0.406453 -4.28447 0.502823 0.728966 0.400758 
3290 0.253201 0.107384 0.0544119 0.496054 -4.31292 -0.735068 0.0354936 0.190758 
2452 0.301607 0.0839132 0.0239768 3.87123 -4.34775 -0.608416 -0.204084 -0.0971319 
2493 0.325454 0.107006 0.0278908 0.334733 -4.32541 -0.477403 0.13304 -0.451362 
3253 0.32306 0.080373 0.0565232 0.400125 -4.32449 -0.472225 0.38327 0.0661611 
3292 0.298753 0.105827 0.0557944 0.204475 -4.31317 0.259783 0.517499 -0.0809858 
2454 0.349142 0.0810849 0.0264454 0.568728 -4.27652 0.144593 0.404521 0.264413 
3294 0.344918 0.103964 0.0595492 0.451936 -4.33158 0.849096 -0.15727 0.118697 
2495 0.371129 0.104797 0.0319588 0.387636 -4.33844 0.238386 -0.0759635 0.0240724 
3255 0.367978 0.0780563 0.0620929 0.388765 -4.34076 0.541698 0.257015 -0.177755 
2456 0.393949 0.0778556 0.0331388 0.846838 -4.29431 -0.312412 1.35126 -0.175089 
3296 0.392285 0.102508 0.0660492 0.385341 -4.36361 0.280166 0.21986 -0.629179 
2497 0.416643 0.104308 0.0352235 0.169841 -4.31578 -0.309823 -0.672236 -0.0733349 
3257 0.41556 0.0762093 0.0650794 0.775302 -4.29132 -0.114709 1.25771 0.237193 
2458 0.440539 0.077605 0.0345882 0.711073 -4.32918 -0.149012 0.912239 -0.0142566 
3298 0.436155 0.101429 0.0677538 0.807663 -4.33713 0.545093 0.224117 0.134003 
2460 0.486398 0.0799114 0.0400393 5.31915 -4.17968 -0.285663 0.0984945 0.62234 
2499 0.46258 0.103379 0.0380588 0.168429 -4.36869 -0.145168 0.0920291 0.410313 
3259 0.460722 0.0795133 0.069419 0.191369 -4.3573 0.0413183 -0.330067 -0.122921 
3300 0.508861 0.103554 0.0444117 5.24894 -4.20596 -0.326368 0.681488 0.105693 
1661 0.531759 0.0575397 0.0141472 4.87103 -4.14876 0.741557 -0.573352 -0.303663 
2501 0.532871 0.106152 0.0170997 5.5162 -4.20538 0.202822 0.00365756 -0.370059 
3261 0.532164 0.0794429 0.0449993 4.93875 -4.20068 -0.447755 0.2251 0.486087 
1702 0.557966 0.10786 0.987364 0.332721 -4.39298 -0.222461 -0.454928 0.051351 
2462 0.555343 0.0815547 0.0160519 0.28903 -4.35647 0.569996 -0.171426 0.275419 
3302 0.553962 0.104672 0.0497492 0.210633 -4.35284 -0.320451 -0.316611 0.466482 
1663 0.581329 0.0815732 0.989834 0.265141 -4.35114 0.012682 0.385979 -0.531242 
2503 0.577755 0.1063 0.0224362 0.182459 -4.34011 0.205175 -0.76019 0.163332 
1704 0.601315 0.108226 0.99545 0.533257 -4.28391 -0.0378254 -0.780124 0.712257 
2464 0.600742 0.0810598 0.0229495 0.42271 -4.32932 -0.25468 -0.0848922 0.991566 
3304 0.597883 0.102691 0.0584599 0.419595 -4.34692 -0.341854 0.551201 -0.455808 
3263 0.575159 0.0790909 0.0523099 0.384997 -4.36048 0.398652 0.284104 -0.874894 
1665 0.624679 0.0827717 0.998161 0.303884 -4.28342 0.0405117 -0.297824 -0.164271 
2505 0.622338 0.104202 0.0307485 0.278149 -4.32345 -0.473043 0.514498 0.22536 
1706 0.646491 0.106748 0.00705358 0.476683 -4.33715 0.612501 -0.0750403 -0.887952 
2466 0.644705 0.0807737 0.0333136 0.324265 -4.33509 0.802796 -0.116385 -0.0802686 
3306 0.643968 0.103638 0.0652416 0.142908 -4.37167 -0.149006 -0.399856 -0.340847 
3265 0.620993 0.0806783 0.0610386 0.234479 -4.34147 -0.168659 -0.778404 -0.0911008 
1667 0.6701 0.0825802 0.00717224 4.57521 -4.19652 -0.363095 -1.21054 0.0712769 
1708 0.694403 0.103857 0.0125803 1.51296 -4.33312 -0.0599799 0.0721468 0.261927 
2468 0.690677 0.0769985 0.0392919 5.1178 -4.24341 0.829688 -0.0809185 0.74009 
2507 0.66919 0.103457 0.0385105 0.353032 -4.33644 -0.516272 0.187369 0.0582021 
1669 0.718511 0.0748167 0.0230756 1.84701 -4.19181 -0.624321 -0.447471 -0.475304 
3308 0.713589 0.101753 0.0477935 0.285797 -4.30515 0.260712 0.179832 -0.666651 
2470 0.761083 0.0731681 0.0251767 0.546884 -4.35798 -0.00338203 1.20389 -0.560869 
2509 0.739129 0.0995029 0.0230602 0.538477 -4.24725 0.500158 1.13696 0.263964 
3269 0.737685 0.0745062 0.053282 0.328285 -4.19329 -0.461193 0.294148 0.0345068 
3310 0.760801 0.0990353 0.0542318 0.535466 -4.29764 -0.536385 1.11453 -0.143347 
2472 0.806397 0.0758481 0.0278812 0.175634 -4.23627 -0.0842981 -0.420008 0.631151 
2511 0.784015 0.101237 0.026355 0.346241 -4.35415 -0.0755676 -0.330504 -0.0246964 
3271 0.7828 0.076658 0.0562427 0.516627 -4.33132 0.531575 -0.613719 -0.158481 
3312 0.828946 0.102579 0.0297403 0.862936 -4.2854 0.393168 -0.851933 0.44805 
2513 0.852777 0.1005 0.00324032 0.197655 -4.37476 0.133843 0.0158626 -0.0613193 
3273 0.852419 0.0765352 0.032354 0.383298 -4.25411 0.373969 -1.19961 -0.174598 
2474 0.875398 0.0763082 0.00290055 0.476726 -4.3204 0.591498 -0.271565 0.935438 
2515 0.898797 0.10159 0.00690503 0.229248 -4.31025 0.367119 -0.688863 -0.433803 
3275 0.899184 0.0782349 0.0366719 0.706563 -4.35791 -0.56519 -0.557579 -0.50612 
3314 0.874559 0.100438 0.0349452 0.457117 -4.29754 0.597905 0.496308 -0.443672 
2476 0.923389 0.077184 0.00869041 0.257227 -4.33317 -0.626073 -0.186612 0.179658 
2517 0.945702 0.101121 0.010459 0.214035 -4.30703 0.153256 0.700745 -0.599766 
3277 0.943796 0.0775206 0.0404923 0.166822 -4.35367 0.65158 -0.654734 -0.144876 
3316 0.922102 0.102061 0.0382093 0.271763 -4.34378 -0.315076 -0.0293704 0.29942 
2478 0.968485 0.0781611 0.0116451 0.373395 -4.36695 -0.142004 -0.684476 0.327018 
2519 0.991473 0.101935 0.0151554 0.960031 -4.34078 -0.183718 0.689326 -0.397082 
3279 0.989407 0.0779791 0.0451383 0.315866 -4.34365 0.642607 0.221756 0.109902 
3318 0.966251 0.102922 0.041031 0.216999 -4.33492 0.358589 0.236212 0.554735 
2482 0.062701 0.134189 0.011972 4.1156 -4.34458 0.403562 -0.865104 0.16114 
2521 0.0400005 0.156594 0.0117312 0.788553 -4.30154 -0.369801 -0.41221 -0.190567 
3281 0.0385594 0.13118 0.0447708 0.581809 -4.34081 -0.0896096 0.314464 -0.464795 
3322 0.0630852 0.156503 0.0445238 0.349456 -4.32323 -0.28676 -0.657811 0.232514 
3320 0.0143943 0.155561 0.0398323 1.01792 -4.32459 0.117927 -0.0454251 0.92508 
2480 0.0123772 0.130883 0.0135579 0.813425 -4.25831 0.987713 -0.269037 0.233789 
2484 0.112464 0.134295 0.0152743 0.618855 -4.3165 -0.219976 -0.854252 0.0589835 
2523 0.0880186 0.15563 0.014013 0.264373 -4.34003 -0.274674 0.460484 -0.0392139 
3283 0.086379 0.131163 0.0446451 0.241754 -4.35007 0.0439778 0.411025 0.078001 
3324 0.109469 0.154863 0.0491799 0.373239 -4.33441 0.18298 -0.069578 -0.965244 
2486 0.159458 0.134468 0.0188308 0.335176 -4.34169 -0.161386 -0.699216 0.421868 
2525 0.135353 0.155674 0.0185732 0.30579 -4.30802 0.124275 0.834866 0.262239 
3285 0.133478 0.130578 0.0497023 0.495264 -4.30481 0.283437 1.05004 -0.492203 
3326 0.157849 0.156228 0.0509898 0.156244 -4.32921 0.160556 -0.217326 0.0103456 
2527 0.183734 0.156056 0.0205822 0.259368 -4.34849 -0.367563 0.545964 -0.0342186 
3287 0.181427 0.131592 0.0519227 0.167013 -4.32949 -0.47119 0.346293 -0.0193784 
2488 0.207151 0.13296 0.0227483 0.203348 -4.35031 -0.157808 -0.227172 -0.347904 
3328 0.203993 0.155836 0.052871 0.525664 -4.32161 0.765861 -0.153013 0.300289 
2529 0.228993 0.157028 0.0240883 0.519068 -4.31343 0.570937 -0.378452 -0.646265 
3289 0.22916 0.132428 0.0542762 0.242548 -4.35961 0.176418 -0.320505 -0.142626 
2490 0.253187 0.131958 0.0242725 0.162357 -4.35286 0.132881 0.154625 -0.158629 
2531 0.276843 0.157134 0.0240511 0.227218 -4.31924 0.598348 -0.595447 0.0528898 
3291 0.274876 0.132965 0.0550304 0.524428 -4.33556 0.223057 -0.390649 -0.170626 
3330 0.252918 0.157988 0.0528111 0.701467 -4.3457 -0.345178 -0.841543 0.237167 
2492 0.299777 0.130781 0.0275325 0.626707 -4.33319 0.558438 0.245709 -0.431804 
2533 0.323691 0.155577 0.0286514 0.297446 -4.32397 0.0697133 -0.0447867 -0.300235 
3293 0.324865 0.13025 0.0593059 1.01832 -4.27568 -1.57331 -0.325246 -0.331308 
3332 0.301425 0.15462 0.056929 1.17109 -4.28563 -1.29751 0.43636 -0.28776 
2494 0.348394 0.131608 0.0314019 0.459961 -4.31192 -0.135717 -0.656656 -0.535554 
3334 0.345393 0.154764 0.0598322 0.20829 -4.32326 -0.0896908 0.212524 0.391757 
2535 0.37136 0.154326 0.0324373 0.161692 -4.34876 -0.333611 0.368497 -0.00537392 
3295 0.369808 0.128852 0.0609766 0.421072 -4.33212 -0.345565 -0.171966 0.913437 
2496 0.39491 0.129841 0.0370559 0.752817 -4.31227 0.101847 -0.297066 -1.11802 
3336 0.39265 0.153565 0.0642438 0.430804 -4.31108 0.00376094 0.284555 1.16775 
2537 0.417679 0.154748 0.0367263 0.3712 -4.33054 -0.335246 -0.352354 0.214483 
3297 0.415395 0.127354 0.0695756 0.469963 -4.35103 -0.0079753 0.69225 -0.339877 
1738 0.442453 0.154113 0.00845864 0.248627 -4.33366 -0.0631675 -0.249468 -0.415278 
2498 0.438342 0.127405 0.0392562 0.678644 -4.27202 0.450687 0.746603 -0.509604 
2538 0.440002 0.17843 0.0382506 0.405059 -4.30684 -0.373288 0.104591 0.301956 
3338 0.437161 0.154425 0.0703653 0.702556 -4.31691 -0.110391 -0.991036 0.295694 
1740 0.487244 0.152193 0.0138495 0.608853 -4.32592 -0.103369 0.902816 -0.395092 
2500 0.484093 0.129291 0.0425667 0.398103 -4.32218 0.383131 -0.981392 0.308826 
2539 0.461471 0.152167 0.0410996 0.308279 -4.32994 0.109319 -0.0610003 0.138753 
2540 0.510431 0.177493 0.0192109 0.677634 -4.33495 -1.02285 0.200555 -0.633125 
3299 0.458274 0.12724 0.0700138 0.7743 -4.34046 0.556641 -0.0483761 0.607179 
3339 0.485254 0.176499 0.0454523 0.30681 -4.35197 -0.371409 0.250481 0.246621 
3340 0.508152 0.151209 0.0484091 0.429234 -4.35383 -0.524735 0.348571 -0.192605 
2541 0.532741 0.154024 0.0209175 0.333933 -4.34664 -0.280756 -0.540975 -1.06831 
3301 0.532036 0.129211 0.0504858 0.339227 -4.36993 -0.508128 -0.353584 0.057241 
3341 0.528738 0.175696 0.0530358 0.504495 -4.30881 0.687875 0.945783 -0.15684 
1742 0.556164 0.154659 0.990987 0.405198 -4.33514 -0.0414994 0.901348 0.344503 
2502 0.556612 0.129772 0.0214344 0.401048 -4.30054 -1.2966 0.0282876 -0.129812 
2542 0.553151 0.177881 0.0255066 0.247525 -4.36234 0.383791 0.493184 -0.466411 
3342 0.553634 0.153192 0.0544903 0.301821 -4.3226 -0.928285 -0.4243 0.567847 
1703 0.578606 0.131981 0.992618 0.365194 -4.29266 0.147687 -0.15789 0.459747 
1743 0.577792 0.179098 0.997054 0.357258 -4.35492 0.0456597 0.00531604 0.0840875 
2543 0.576354 0.153202 0.0278723 0.251442 -4.32488 0.436009 0.631107 -0.318563 
3303 0.574813 0.12802 0.0576048 0.364911 -4.34257 0.724511 -0.048787 -0.48798 
3343 0.57362 0.177179 0.0601695 0.336161 -4.32835 0.623342 0.350262 -0.636697 
1744 0.600135 0.155669 1.00164 0.653194 -4.34745 0.80175 -0.322499 -0.572839 
2504 0.59963 0.129359 0.0295019 0.241313 -4.36441 -0.451073 0.177439 -0.215098 
2544 0.599142 0.17813 0.0321191 0.0700544 -4.36577 -0.0601946 0.199211 0.44554 
3344 0.597403 0.153543 0.0618328 0.265851 -4.38497 0.056699 -0.321672 -0.539196 
1705 0.623744 0.130268 0.00228551 0.225211 -4.352 0.123018 0.874461 0.323022 
1745 0.624755 0.178921 0.00676322 0.326647 -4.3457 0.0511135 0.210274 -0.625861 
2545 0.622287 0.154114 0.0340644 0.0868369 -4.36481 0.0726361 -0.128183 0.151233 
1746 0.647939 0.153851 0.00765822 0.319423 -4.34961 -0.519268 0.258518 -0.0641818 
2506 0.644907 0.129123 0.0365645 0.108453 -4.35458 0.137329 -0.0593848 -0.0302922 
2546 0.644671 0.17884 0.0409383 0.583114 -4.32432 -0.400357 -0.279872 -0.97374 
3305 0.619513 0.12815 0.0610035 0.519879 -4.36306 0.360024 -0.321806 0.603336 
1747 0.668089 0.179018 0.0114101 0.830553 -4.36812 0.84912 -0.509332 0.140957 
2547 0.667779 0.153511 0.0402893 0.19722 -4.35616 -0.0993008 0.213764 0.667016 
3345 0.621146 0.176761 0.0676285 0.653151 -4.34447 -0.552558 0.503274 -0.806511 
1707 0.671738 0.129942 0.012252 0.637785 -4.31629 -0.767284 -0.62813 -1.13069 
1748 0.692959 0.153984 0.0162481 0.289144 -4.30496 0.246008 0.0951586 -0.608151 
2508 0.690169 0.128027 0.0431895 0.147155 -4.26111 0.896681 0.144356 0.387726 
2548 0.690591 0.176912 0.0463322 0.371553 -4.32508 0.157722 0.553092 -0.642701 
1709 0.716126 0.130108 0.0173501 1.05132 -4.34157 -0.0241342 -0.769528 0.569816 
1749 0.7162 0.17767 0.0175038 0.200836 -4.31285 -0.597607 0.0581745 1.03958 
2549 0.713035 0.153475 0.049669 0.649591 -4.32385 0.544674 -0.283057 -0.555321 
1750 0.739623 0.153406 0.0233278 0.434528 -4.37283 -0.375579 -0.413423 -0.396509 
2510 0.76197 0.128084 0.0239896 0.629115 -4.31859 -0.442 -0.961734 0.704233 
2550 0.737645 0.178626 0.0502086 0.393789 -4.35455 0.00893237 -0.862836 0.155166 
1751 0.763381 0.176204 0.0232539 0.533242 -4.332 -0.576668 0.493441 0.15934 
3309 0.736769 0.127093 0.0524215 0.347104 -4.29151 0.295026 -0.573738 -0.901344 
3350 0.760358 0.153277 0.0554733 0.671383 -4.30594 0.137341 -0.778034 -0.375444 
2512 0.83062 0.124359 1.81576e-05 0.32011 -4.32112 -0.0887068 0.775123 0.00527259 
2551 0.78453 0.1513 0.0276005 0.257268 -4.37674 0.44745 -0.0196064 -0.0887834 
2552 0.808016 0.176951 0.0278291 0.205358 -4.37566 -0.238521 -0.411168 0.24277 
3311 0.806549 0.126937 0.0294128 0.469251 -4.37274 0.139146 -0.280629 -0.449449 
3351 0.78256 0.177978 0.0563822 0.538298 -4.36158 0.461469 -0.14962 0.0616146 
3352 0.805137 0.152729 0.0589976 0.620175 -4.26365 1.35935 -0.406301 -0.651895 
2553 0.829536 0.150794 0.0297994 0.28856 -4.351 0.438221 0.505697 0.305668 
3313 0.852045 0.127365 0.0324246 0.408438 -4.32768 0.887131 -0.255578 -0.72794 
2514 0.876932 0.125186 0.00430138 0.279616 -4.32156 -0.658718 0.54795 0.0817789 
2554 0.87659 0.177501 0.00378942 0.30554 -4.32443 0.303051 -0.572509 -0.856634 
2555 0.899682 0.151823 0.00665671 0.220978 -4.35595 -0.125263 -0.33067 -0.700122 
3315 0.897639 0.125076 0.0342713 0.682442 -4.30462 0.268613 0.950168 1.14228 
3354 0.875519 0.153014 0.0336132 0.251565 -4.3196 0.175058 -0.472384 -0.31976 
3355 0.898289 0.177378 0.0341489 0.247523 -4.38549 0.367637 0.135117 0.681402 
2516 0.922541 0.1245 0.00817883 0.752804 -4.31176 -0.115776 1.19767 -0.107159 
2557 0.945268 0.153206 0.00954689 0.210151 -4.28563 -0.0719219 -0.431209 -0.0755066 
3317 0.943557 0.128674 0.0392921 0.198904 -4.35295 0.343542 -0.265865 0.0212585 
3356 0.920867 0.152624 0.038468 0.239952 -4.36068 -0.095241 -0.180902 -0.730867 
3357 0.943354 0.1782 0.0379096 0.268331 -4.32457 0.0871814 0.111169 0.702397 
2518 0.969024 0.128403 0.0117936 0.365174 -4.34767 -0.659362 0.238723 0.223453 
2559 0.990166 0.15711 0.0123732 1.07507 -4.32398 0.0185113 -1.09267 0.00130396 
3319 0.990699 0.129771 0.0418719 0.310163 -4.27267 -0.914467 0.0470883 0.197257 
3358 0.966007 0.155381 0.0406252 0.425504 -4.31333 0.402113 -0.689207 0.425597 
2522 0.0639037 0.179936 0.0114153 0.256045 -4.34545 -0.596365 -0.269243 0.0100357 
3321 0.0390091 0.178217 0.0434091 0.365071 -4.32904 -0.360915 0.425667 0.271904 
2520 0.0151961 0.180293 0.0124127 0.252116 -4.32247 0.154486 -0.00357785 -0.43712 
2561 0.0389376 0.203429 0.0122685 0.317495 -4.3522 0.355196 -0.22229 -0.175303 
2562 0.0641892 0.22627 0.0147263 0.333834 -4.31156 -0.572785 -0.0504623 0.100286 
3361 0.0367996 0.225829 0.0454206 0.712114 -4.33568 0.966812 1.12161 -0.427672 
3362 0.0612227 0.20306 0.0440415 0.289061 -4.36104 -0.207806 -0.503183 0.398934 
3360 0.0157068 0.203626 0.0431043 0.416471 -4.29296 -1.09243 -0.598693 -0.402392 
2560 0.0160142 0.228969 0.00891937 1.37878 -4.32422 -0.185129 -0.971316 1.27825 
2524 0.111621 0.180006 0.0169255 0.195715 -4.36541 -0.115959 -0.302892 0.0858216 
3323 0.0857504 0.178899 0.0444185 0.319304 -4.32165 -0.0948683 -0.0270073 0.903614 
2563 0.0867278 0.201656 0.0141598 0.599858 -4.34504 0.0405784 0.828594 0.246351 
2564 0.109537 0.226082 0.0187763 0.468353 -4.32569 0.644646 1.01932 0.2813 
3363 0.0845167 0.225859 0.0477458 0.20754 -4.3501 0.592725 0.371282 -0.120689 
3364 0.108962 0.202501 0.0473193 0.137941 -4.33426 0.0717116 -0.221599 0.928437 
2526 0.15875 0.179763 0.0203849 0.308691 -4.35977 0.288264 0.0486305 -0.287773 
3325 0.134385 0.179166 0.049621 0.137713 -4.3352 -0.522377 0.136055 0.171808 
1765 0.136908 0.228372 0.990801 0.395777 -4.31674 -0.762043 0.231854 -0.360983 
2565 0.134977 0.203062 0.0199085 0.19813 -4.3718 0.162926 0.464538 0.0381001 
2566 0.157887 0.228944 0.0223468 0.244556 -4.31779 0.071182 -0.263007 -0.540636 
3365 0.133203 0.226332 0.0515791 0.196215 -4.36718 0.133083 0.0626293 -0.408172 
3366 0.158483 0.203395 0.0525923 0.425566 -4.36266 -0.677593 -0.501179 -0.387125 
3327 0.183106 0.180041 0.0501846 0.974819 -4.31078 -1.19957 -0.167794 0.490952 
2528 0.207579 0.180938 0.0232184 0.419274 -4.31122 -0.607506 0.362224 -0.652358 
2567 0.180969 0.206328 0.022256 1.21552 -4.25097 0.790606 -0.916747 -0.720345 
3367 0.179801 0.227227 0.0522795 0.483828 -4.2749 0.709681 0.970081 0.723049 
2568 0.20741 0.228404 0.022837 0.47225 -4.36502 -0.316413 0.311085 0.17964 
3368 0.203064 0.204637 0.0533054 1.12904 -4.29883 1.4266 0.164317 -0.261798 
3329 0.229164 0.180048 0.0521494 0.377194 -4.28163 -0.0864476 0.224441 0.842737 
2530 0.255024 0.181509 0.0220498 0.656856 -4.31459 -0.338497 0.327218 0.622783 
3331 0.276898 0.179386 0.0546232 0.390043 -4.32938 -0.331614 0.234032 0.734336 