ITEM: TIMESTEP
2750
ITEM: NUMBER OF ATOMS
28567
ITEM: BOX BOUNDS pp pp pp
-1.1019831590464122e+00 7.1501983159046858e+01
-5.5972489072698295e-01 7.0959724890726875e+01
4.8570866586624719e+00 6.5542913341337851e+01
ITEM: ATOMS id xs ys zs c_csym c_peratom fx fy fz 
1601 0.0266322 0.0243253 0.0036466 0.385584 -4.34071 0.525348 0.517051 0.169544 
1642 0.0534426 0.0503704 0.0035079 0.158311 -4.32142 -0.157272 -0.332529 -0.397714 
1602 0.0531118 0.000224527 0.00304803 0.10415 -4.31897 0.216035 -0.168022 0.333178 
2402 0.0532916 0.0261779 0.0291293 0.435309 -4.34739 0.503496 -0.784836 0.435011 
2441 0.0292232 0.0496562 0.0326422 0.505583 -4.32187 -0.301011 0.333738 -0.673699 
3201 0.0286229 0.0246913 0.0575167 0.209947 -4.31087 -0.430969 0.217986 0.0667612 
3242 0.0562799 0.0497927 0.0577694 0.810682 -4.31606 -0.929858 0.461323 -0.41631 
1603 0.0805403 0.0254862 0.00329719 0.69865 -4.30404 -1.01626 -0.324706 0.0498149 
1644 0.105905 0.0494847 1.00211 0.454593 -4.34451 -0.599701 0.342094 -0.442887 
2404 0.105965 0.0249234 0.0294166 0.301032 -4.33504 -0.522635 0.330887 0.221272 
2443 0.0792601 0.0505966 0.029723 0.238554 -4.29914 0.692362 -0.557419 0.267383 
3203 0.0795638 0.0249558 0.0572801 0.192869 -4.366 0.238416 -0.137172 -0.0883229 
3244 0.104313 0.0511578 0.058431 0.386565 -4.38124 0.226874 -0.0806331 -0.673593 
1605 0.129335 0.0244006 0.999379 0.601114 -4.37137 0.2164 -0.0934629 0.308676 
1607 0.178943 0.0266742 1.00167 0.294009 -4.35999 0.239345 -0.0896701 -0.669831 
1646 0.154029 0.0500892 0.999771 0.252678 -4.37739 0.192896 -0.00948837 0.0429546 
2406 0.155417 0.026393 0.0300951 0.365023 -4.31052 -1.04881 -0.125485 -0.148039 
2445 0.131124 0.0503897 0.0276684 0.426316 -4.35646 -0.544546 0.154001 0.537819 
2447 0.177979 0.0527356 0.0289057 0.239644 -4.36494 0.0320057 -0.224693 -0.381018 
3205 0.129352 0.0256254 0.0577316 0.140505 -4.3383 0.275111 0.439753 -0.243126 
3207 0.178219 0.027997 0.0565467 0.258026 -4.3335 0.526647 -0.400202 0.860912 
3246 0.154137 0.0524183 0.0567594 0.121749 -4.33372 -0.273058 -0.187848 -0.0800028 
1609 0.226995 0.0260679 -0.00112593 0.367728 -4.32842 0.554386 -0.499391 1.0853 
1648 0.203832 0.0511527 1.00318 0.938083 -4.33837 -0.25012 0.192551 -1.22124 
2408 0.203101 0.0268605 0.0291563 0.185676 -4.3469 -0.010979 -0.0957803 0.172726 
2449 0.228878 0.0521231 0.0290911 0.344018 -4.33722 -0.0974605 -0.0751205 -0.355644 
3209 0.227311 0.027896 0.0563108 0.353938 -4.34309 0.162 -0.5157 0.387283 
3248 0.203135 0.0531047 0.0554508 0.281747 -4.38395 0.0344851 -0.260626 0.516386 
1611 0.27358 0.0249393 1.00131 0.587569 -4.26036 1.03034 -0.328788 -0.803656 
1650 0.252287 0.0486875 1.0003 1.05759 -4.30604 -0.918019 1.41178 -0.509481 
2410 0.252165 0.0257674 0.028407 0.281893 -4.28857 -1.08245 -0.481356 0.496766 
2451 0.275203 0.0512873 0.027658 0.484005 -4.28751 -0.0811106 0.531157 0.0478732 
2411 0.274901 1.00061 0.0277296 0.218091 -4.32171 0.13951 -0.381901 0.60279 
3211 0.276569 0.0264814 0.0556326 0.153404 -4.2907 -0.0892018 -0.176932 -0.00813623 
3250 0.252909 0.0505133 0.056648 0.707806 -4.28911 -0.107369 1.22137 0.0354953 
1613 0.322937 0.02408 0.0017376 4.61178 -4.23022 0.330332 0.204927 -0.136367 
1652 0.296415 0.0508845 -0.000848956 5.0132 -4.22558 0.438432 -0.543533 -0.11054 
1654 0.352346 0.0553554 0.995679 4.45817 -4.28855 -0.361076 -0.124667 -0.656265 
1612 0.298281 0.999571 0.00176654 0.41612 -4.30926 0.410785 -0.445683 0.182351 
2412 0.299466 0.0272903 0.0276635 0.469378 -4.32827 0.00140658 -0.430855 -0.0978094 
2414 0.350182 0.028924 0.0228077 1.41521 -4.34313 -0.373991 -0.124042 0.20521 
2453 0.324228 0.0544657 0.0199768 4.71175 -4.36178 0.864164 -0.381449 0.482087 
3213 0.325704 0.0288471 0.0518505 0.705912 -4.35008 -0.599798 -0.279583 -0.261005 
3252 0.30118 0.0548252 0.0512738 0.936012 -4.33586 0.271373 -0.644365 0.870018 
3254 0.3469 0.0552475 0.0524849 0.824119 -4.32772 0.983175 -0.462162 -0.542322 
1615 0.376105 0.0287161 0.9968 1.08008 -4.31464 -0.0915939 0.199537 0.328861 
1656 0.401955 0.0536755 0.997879 0.614549 -4.32634 -0.812932 0.162078 -0.345491 
2416 0.398541 0.0284332 0.0262935 0.201109 -4.37106 -0.0682242 -0.187603 -0.0344237 
2455 0.374048 0.0545416 0.0254667 0.131747 -4.31972 0.324531 -0.34105 0.0751676 
1616 0.399819 0.0015586 1.00004 0.426996 -4.33718 -0.358125 0.0283186 -0.800833 
3215 0.372145 0.0287146 0.052851 0.216981 -4.36112 0.435657 0.0164118 0.310853 
3256 0.397587 0.0533583 0.0555777 0.390691 -4.3431 0.286295 -0.236989 -0.50453 
1617 0.424678 0.0257508 0.997032 0.783375 -4.37073 0.324681 0.71189 -0.0728844 
1658 0.448277 0.0541503 0.996142 0.90902 -4.25101 0.123263 -0.967964 0.237835 
2418 0.447706 0.0266504 0.0286015 0.357625 -4.31702 0.0622601 0.658211 -0.576268 
2457 0.423938 0.0523577 0.0261192 0.203172 -4.3382 0.01582 -0.061996 0.0279559 
3217 0.420932 0.0272343 0.0556888 0.465837 -4.32343 0.757306 -0.103289 -0.0946814 
3258 0.44701 0.0522603 0.0547709 0.152505 -4.33759 0.227302 0.0454822 0.425191 
1619 0.473193 0.0267317 1.00075 0.435111 -4.3302 0.227328 -0.0202302 0.0465909 
1621 0.5251 0.0260089 0.00216819 0.573043 -4.32675 0.457022 -0.1922 0.659644 
1660 0.500058 0.0501772 1.00021 0.32913 -4.27582 -0.466085 0.449482 0.28999 
2420 0.49908 0.0271329 0.0301087 0.261203 -4.31555 -0.758697 -0.0483943 -0.403031 
2459 0.471773 0.0529686 0.0275022 0.465051 -4.34547 0.622967 -0.659822 -0.427665 
2461 0.521861 0.0503225 0.031563 0.451623 -4.30265 1.33533 0.135662 -0.316494 
3219 0.472195 0.0282462 0.0577736 0.379383 -4.35721 0.104178 -0.511608 -0.554947 
3221 0.521626 0.0258245 0.0610065 0.302334 -4.33076 0.558102 -0.0839643 -0.385715 
3260 0.497412 0.0517807 0.0563152 0.254762 -4.35163 -0.197529 -0.00668577 0.876677 
1623 0.573942 0.0236747 0.00641798 0.412667 -4.33799 0.226713 -0.720656 0.189423 
1662 0.550557 0.0479886 0.00592406 0.579921 -4.29077 -0.613385 0.290966 -0.662142 
2422 0.548207 0.0252601 0.0333045 0.22856 -4.30311 -0.739408 -0.824885 0.211702 
2463 0.571927 0.0472908 0.0356201 0.317956 -4.31473 0.902874 0.479984 -0.129448 
3223 0.571031 0.0223623 0.0619661 0.249625 -4.31581 0.353286 0.505629 0.372062 
3262 0.546334 0.0493521 0.063236 0.532356 -4.32947 0.0942649 0.00532903 -0.963386 
3222 0.546659 -0.00179833 0.0606421 0.266322 -4.34194 0.096566 0.488339 -0.286256 
1625 0.622631 0.0228309 0.00750686 0.548618 -4.31608 0.0159316 -0.864789 1.06285 
1664 0.597821 0.0462983 0.00696055 0.167444 -4.35741 -0.110369 0.539354 0.0757357 
2424 0.598213 0.0207387 0.0345002 0.854918 -4.29332 -0.329602 0.97358 1.04176 
2465 0.620585 0.0458367 0.0387519 0.560056 -4.34667 0.0235311 0.767298 -0.720092 
3225 0.620791 0.0219919 0.0653451 0.146152 -4.30834 -0.233788 -0.207587 0.198214 
1627 0.671651 0.0229197 0.0127655 0.393038 -4.37076 0.0434929 0.135126 -0.404053 
1666 0.646542 0.0474578 0.0105907 0.311502 -4.37437 -0.175664 -0.289898 0.00639091 
1668 0.691917 0.0517483 0.0126484 1.07634 -4.3365 0.15111 -1.08297 0.396638 
2426 0.646369 0.0215283 0.0395327 0.419294 -4.36231 -0.302268 0.826275 -0.241089 
2428 0.693908 0.0272568 0.0419389 7.17687 -4.02619 -0.139829 0.99896 -0.994878 
2467 0.667467 0.050486 0.0401235 0.822031 -4.31185 0.646361 -0.740844 0.733784 
3227 0.670629 0.023735 0.06836 1.13432 -4.27144 0.0271429 -0.0593248 -0.0434137 
3266 0.643663 0.0479172 0.0665041 0.401784 -4.32277 0.311671 0.0746672 0.373122 
3226 0.64567 0.996126 0.0660885 0.555795 -4.35303 0.0239398 0.56552 0.540037 
1629 0.717605 0.0263703 0.0144256 4.49179 -4.09269 -0.202286 0.906382 0.273067 
1670 0.74065 0.0516795 0.0209424 0.88023 -4.26427 -0.223213 -0.102955 -0.559222 
2430 0.758803 0.0250189 0.0258535 1.23783 -4.35991 0.607662 -0.24976 0.11997 
2469 0.715792 0.0520294 0.044509 4.77369 -4.04622 -0.214346 -0.183747 -0.513551 
3229 0.73191 0.0240026 0.051795 4.95985 -4.30364 -0.44748 -0.126593 0.114912 
3270 0.75858 0.0500223 0.0528836 0.35479 -4.30018 -0.293361 -0.0752663 0.399563 
1631 0.782602 0.0254804 0.996222 0.944646 -4.36306 0.467682 0.05701 0.770058 
1672 0.809008 0.0513021 0.999228 0.391069 -4.30436 -0.501144 -0.313391 -1.10243 
2432 0.80533 0.0272546 0.0272651 0.814556 -4.34897 1.0747 -0.592065 -0.16154 
2471 0.782978 0.051678 0.0272712 0.84719 -4.31833 0.490161 -0.534317 0.0250044 
1633 0.832465 0.0266109 1.00085 0.437014 -4.2844 -0.983726 -0.628391 -0.839493 
2473 0.831291 0.0516286 0.0284304 0.428567 -4.31404 0.839525 -0.554178 -0.562781 
1632 0.806836 0.00066606 0.998491 0.176047 -4.32628 0.610958 0.604919 -0.302908 
2433 0.830569 1.96935e-05 0.028182 0.40324 -4.33465 0.149567 0.910644 -0.111759 
3231 0.783068 0.0245853 0.0555197 0.453157 -4.30545 -0.531043 0.269382 0.105788 
3232 0.80647 0.000762853 0.0553125 0.207307 -4.31738 -0.0453105 0.440752 -0.19558 
3272 0.808489 0.0517533 0.0558339 0.637003 -4.33945 -0.984533 -0.775658 0.566495 
1635 0.880544 0.0250039 0.0016491 0.348596 -4.35698 -0.284321 0.404622 -0.0289865 
1674 0.857343 0.0507965 0.000740005 0.173343 -4.35432 0.0297985 -0.22424 0.24514 
2434 0.853753 0.0259241 0.0278714 0.730719 -4.29098 1.07856 -0.573166 0.664083 
2475 0.879746 0.0491657 0.0301861 0.35125 -4.31044 0.271447 0.572996 -0.375542 
1634 0.856456 1.00221 -0.00113645 0.469692 -4.32831 -0.761944 -0.507832 0.249264 
3235 0.877956 0.0245465 0.0587143 0.456294 -4.33327 0.929498 -0.136834 -0.642409 
3274 0.855886 0.0479643 0.0577413 0.760248 -4.33948 -0.342426 1.30316 0.0140407 
3234 0.854451 0.0012171 0.05956 0.556881 -4.34116 0.361523 -0.521607 -1.17832 
1637 0.930225 0.0275247 0.002183 0.41282 -4.37085 -0.410715 -0.485486 0.30508 
1676 0.903977 0.051552 0.0011604 0.592554 -4.37053 0.586066 0.131993 0.535041 
1636 0.904761 1.00196 0.00285893 0.359841 -4.34243 -0.0459829 -0.128414 -0.352999 
2436 0.905373 0.0272073 0.0299608 0.592346 -4.29964 -0.581216 -0.747423 -0.263672 
2477 0.929186 0.0518601 0.0316376 0.444962 -4.38161 0.0367227 -0.136637 -0.176913 
3237 0.928526 0.0246682 0.0571339 0.64879 -4.31509 0.0917446 0.531808 1.03585 
3276 0.902857 0.0494571 0.0578761 0.809792 -4.27294 0.754784 0.839772 0.408763 
3236 0.90356 0.000730332 0.0574716 0.199847 -4.36652 0.224752 0.492829 0.0231797 
1640 0.00394106 0.0511631 0.00377512 0.53011 -4.34971 -0.370807 -0.160987 0.291387 
1639 0.977123 0.0275416 0.00270606 0.598442 -4.34511 0.26126 -0.621906 0.0901073 
1678 0.954303 0.0512559 0.00402936 0.488767 -4.29478 -0.550053 -0.0032936 -0.595173 
2400 0.000992863 0.0248866 0.0300858 0.631744 -4.31302 0.570908 0.839894 0.407776 
2438 0.952978 0.0255735 0.0313728 0.260175 -4.35347 0.159045 0.578991 -0.00557668 
2479 0.977364 0.0510953 0.0306623 0.218903 -4.31639 0.666716 0.0833337 0.520551 
1638 0.953672 0.00193232 0.00376467 0.408871 -4.29418 -0.883519 -0.13272 -0.654166 
3240 0.00372977 0.0500543 0.0581482 0.193801 -4.35184 -0.504546 0.194882 0.0759931 
3239 0.976904 0.0266605 0.0593793 0.432761 -4.33451 0.528725 -0.313837 -0.42157 
3278 0.954389 0.0517266 0.0596137 0.349993 -4.35203 -0.49831 -0.161839 -0.462572 
1641 0.0282053 0.0750389 0.00425035 0.282987 -4.34854 -0.0740967 -0.556821 -0.40518 
1682 0.0534227 0.0993413 0.00279627 0.350272 -4.27695 0.246562 0.273805 -0.203948 
2442 0.0552269 0.075564 0.03044 0.220753 -4.32228 -0.816408 -0.308312 -0.222107 
2481 0.0291825 0.100424 0.0284817 0.335828 -4.30639 -0.476976 0.00133244 0.846719 
2440 0.00316037 0.0758956 0.0323443 0.47916 -4.33777 0.22104 -0.179569 -0.499622 
3241 0.0296057 0.0750602 0.0581544 0.238221 -4.32468 -0.406531 0.681676 -0.366055 
3282 0.0546441 0.101245 0.0549384 0.334429 -4.34976 0.0131938 0.686868 0.116222 
3280 0.00266708 0.100364 0.0595679 0.671241 -4.3312 0.658782 0.319851 -0.552515 
1643 0.0796841 0.0742699 0.00396927 0.550775 -4.32147 0.115226 -0.0389357 -0.962331 
1684 0.106378 0.101499 0.999327 0.784418 -4.35104 -0.128907 -0.19166 -0.16214 
2444 0.105817 0.0756176 0.028154 0.290285 -4.34903 -0.0651527 0.0537403 0.0353893 
2483 0.0813475 0.101426 0.0264734 0.721255 -4.37864 -0.510003 0.200927 0.10956 
3243 0.079445 0.0770839 0.055035 0.459195 -4.36127 0.760078 0.0540565 0.745648 
3284 0.104382 0.101896 0.0563701 0.137807 -4.37998 -0.12302 -0.3317 0.0610353 
1645 0.1301 0.0762205 0.998221 0.535802 -4.37424 -0.397067 0.101477 0.193223 
1647 0.179154 0.0764168 -7.26941e-06 0.231435 -4.34584 -0.1476 0.148211 0.1811 
1686 0.154566 0.102555 1.00057 0.334646 -4.35003 -0.0332607 -0.215711 -0.743205 
2446 0.153542 0.077882 0.0263881 0.618394 -4.35767 0.246589 -0.904886 0.533516 
2485 0.130152 0.100947 0.0276513 0.228542 -4.31472 -0.633495 0.228256 0.148712 
3245 0.128936 0.0761857 0.0562731 0.193916 -4.36982 0.0438298 0.120534 0.234331 
3247 0.177495 0.0769663 0.0558884 0.221346 -4.34583 0.435906 0.29717 0.397353 
3286 0.152332 0.101274 0.056265 0.502367 -4.33016 0.989753 0.525278 0.304448 
2487 0.178268 0.102542 0.0301383 0.495048 -4.36338 0.0849003 -0.289874 -0.615505 
1649 0.227568 0.0762319 0.999624 0.366692 -4.29588 -0.438151 -0.000606856 0.717221 
1688 0.2019 0.100619 -0.000681621 0.542925 -4.32432 0.245089 0.461605 0.677501 
2448 0.203357 0.0773691 0.0285308 0.174245 -4.34656 0.2733 0.402075 0.174127 
2489 0.228599 0.104003 0.028197 0.511015 -4.35807 -0.616349 -0.80613 -0.0998551 
3249 0.228944 0.0772835 0.0569229 0.264112 -4.34114 0.066868 0.13088 -0.319768 
3288 0.20354 0.102756 0.0571488 0.119608 -4.34908 0.197775 -0.842142 0.063757 
1651 0.274011 0.0772444 0.998694 0.849319 -4.25066 -0.0282923 -0.0726863 0.350335 
1690 0.251929 0.103668 1.00042 0.56342 -4.24546 0.186286 0.0720146 -0.424002 
2450 0.251868 0.0784714 0.0265569 0.568743 -4.2826 0.0138719 -0.572463 0.448307 
2491 0.28029 0.104259 0.0227294 1.14348 -4.29875 -1.0281 0.0574837 -0.226468 
3251 0.278012 0.0786319 0.051097 0.887461 -4.32612 -0.164832 0.272874 0.791986 
3290 0.25472 0.104199 0.0538519 0.354842 -4.37088 0.0673271 -0.272012 -0.0856874 
1653 0.328589 0.0810227 0.99158 4.60524 -4.33928 0.118396 0.205097 -0.016636 
1692 0.302484 0.106223 0.993323 3.64451 -4.30313 0.513592 -0.0909491 -0.469778 
1694 0.35486 0.107333 0.993797 0.996877 -4.28852 -0.393632 -0.754642 -0.410872 
2452 0.302355 0.078031 0.0205098 3.72876 -4.34424 -0.0260452 0.984744 0.0217006 
2454 0.349933 0.0805893 0.0225993 0.283657 -4.30073 -0.174631 -0.497654 0.0609377 
2493 0.327835 0.106326 0.0188531 0.999798 -4.29744 -0.63358 -0.48701 0.610455 
3253 0.325083 0.0790069 0.0517659 0.211712 -4.29381 -0.300435 0.491465 -0.216665 
3292 0.302326 0.104902 0.0502267 0.345434 -4.31674 0.666288 -0.586079 0.616354 
3294 0.348193 0.104129 0.049927 1.15485 -4.30184 0.799753 0.574105 1.08455 
1655 0.376502 0.0787327 0.997956 0.792706 -4.30501 0.0807472 0.287715 -0.870459 
1696 0.398994 0.104618 0.997963 0.835932 -4.33213 0.20864 -0.257969 -0.877074 
2456 0.400083 0.0779826 0.0269541 0.510514 -4.35138 -0.347399 0.176383 -0.408614 
2495 0.374518 0.104376 0.0253284 0.456417 -4.34508 0.407361 0.327269 0.00672753 
3255 0.372488 0.0784432 0.0533141 0.56599 -4.34795 0.669099 0.403154 0.0177794 
3296 0.398502 0.104995 0.0527988 0.469482 -4.35381 -0.0492715 -0.643562 0.119225 
1657 0.425897 0.0807832 0.996295 1.15153 -4.27287 -0.918791 -0.63417 0.0883826 
1698 0.447977 0.105136 0.995607 0.511055 -4.25147 0.416324 -0.671369 0.458106 
2458 0.448101 0.0762041 0.0246005 0.760086 -4.2708 0.0348026 1.40748 0.786123 
2497 0.422361 0.10348 0.02482 0.59124 -4.2864 1.23255 -0.156565 0.298696 
3257 0.423574 0.0782063 0.0540059 0.13777 -4.30879 0.62075 0.139147 -0.182579 
3298 0.449378 0.103937 0.0540463 0.528104 -4.31177 -0.646062 -0.817712 0.220408 
1659 0.473212 0.07728 0.995141 3.75581 -4.34828 0.353045 0.407611 -0.0309176 
1661 0.525417 0.073561 0.00073863 0.215338 -4.28533 -0.0514032 -0.206823 0.57373 
1700 0.499827 0.101418 0.994074 5.62401 -4.35278 -0.491156 -0.677715 0.623046 
2460 0.497248 0.0755357 0.0281151 0.410219 -4.29855 0.27937 0.203287 -1.00194 
2499 0.472982 0.101266 0.0262124 0.413465 -4.29155 0.099704 -0.00181809 -1.05979 
2501 0.522102 0.0991676 0.0292 0.424905 -4.33691 0.384199 0.206156 -0.731826 
3259 0.472617 0.0770697 0.0553984 0.140785 -4.3498 -0.22079 0.186382 0.256835 
3261 0.522621 0.076169 0.0576838 0.248121 -4.35739 -0.257742 -0.528822 0.389108 
3300 0.497155 0.1005 0.0542087 0.533135 -4.32485 -0.163761 0.289046 1.10632 
1663 0.573585 0.0726484 0.00520442 0.279181 -4.33096 0.210315 -0.475645 0.773425 
1702 0.548743 0.0968766 0.00307581 0.369377 -4.31128 0.385667 0.0115766 0.134358 
2462 0.548235 0.073986 0.0327014 0.208984 -4.35253 -0.108771 -0.447874 -0.0149123 
2503 0.571098 0.0986065 0.0338174 0.217089 -4.32091 0.685505 -0.0683342 0.0152361 
3302 0.546919 0.100155 0.0590751 0.202194 -4.3466 -0.00747473 -0.263179 0.484985 
1665 0.62142 0.0705109 0.00798938 0.535833 -4.35293 -0.385779 0.64854 -0.0417305 
1704 0.59707 0.0970679 0.00822864 0.418433 -4.32047 0.180818 0.084217 -0.215102 
2464 0.596421 0.0728151 0.0364747 0.139327 -4.33676 0.273883 -0.395685 -0.209212 
2505 0.619838 0.0987343 0.0362379 0.298378 -4.28992 -0.0798451 -0.482498 0.823203 
1706 0.643455 0.0999837 0.00894704 0.538239 -4.29645 0.0144252 -1.00804 0.0899 
2466 0.643523 0.0738358 0.0377488 0.340832 -4.31975 -0.276426 0.114902 0.663472 
3304 0.59434 0.0981749 0.0630979 0.352863 -4.32764 0.716055 0.395947 0.0617824 
3306 0.643221 0.0986304 0.0677108 0.694894 -4.31155 -0.374731 0.318932 -0.273412 
1667 0.667246 0.0746599 0.0118938 0.566457 -4.30991 0.000966791 -0.174105 -0.846225 
1708 0.692143 0.0978003 0.0126905 0.823558 -4.31475 -0.826001 0.396556 0.673653 
2468 0.690784 0.0739128 0.0428 0.79242 -4.34182 -0.0133187 0.686258 0.416769 
2507 0.668057 0.0990931 0.0399131 0.897033 -4.31378 -0.98658 -0.125039 0.42704 
3267 0.66637 0.0748011 0.0714085 1.14007 -4.24114 0.655662 -0.191581 -1.06654 
1669 0.71642 0.0749493 0.0165503 0.43582 -4.27164 -0.374717 0.868963 0.466662 
1710 0.763922 0.102427 0.995452 0.364538 -4.33728 -0.0252595 -0.112521 -0.97017 
2470 0.763419 0.0784502 0.0228204 0.787949 -4.32655 -1.16401 -0.481822 0.703911 
2509 0.738031 0.102652 0.0219087 0.706223 -4.33281 -0.38416 -0.771935 -0.961357 
1671 0.786934 0.077824 0.997242 0.456705 -4.27468 0.456363 -0.196124 -1.16954 
1712 0.809878 0.10334 0.996702 0.684482 -4.29047 -0.096436 -1.21499 -0.393125 
2472 0.808246 0.0741131 0.0255 0.994378 -4.27648 0.110615 1.45294 0.677953 
2511 0.786313 0.101471 0.0255518 0.286729 -4.33084 0.475323 -0.120775 -0.14669 
1673 0.834652 0.0772039 -0.0026424 0.686581 -4.28029 -1.12616 -0.336126 0.968582 
2513 0.831006 0.0999261 0.0250343 1.20055 -4.31435 0.647107 -0.222552 1.27194 
3271 0.783563 0.0765579 0.0545397 0.38371 -4.36595 0.0929928 -0.435045 0.0393778 
3273 0.832683 0.074555 0.0556917 0.335967 -4.31707 -0.250429 0.771178 0.272567 
1675 0.881838 0.0767559 0.00146687 0.390268 -4.32929 -0.0226558 -0.748326 0.616601 
1714 0.857265 0.102104 3.53918e-05 0.685267 -4.34131 0.284365 -0.709358 0.0191726 
2474 0.856893 0.0746075 0.0285492 0.312261 -4.36654 0.0559771 0.83796 0.0373241 
2515 0.882464 0.102079 0.0282856 0.663843 -4.345 -0.64899 -0.54395 0.547821 
3275 0.880468 0.0751294 0.0572968 0.141386 -4.35339 -0.422092 0.313386 0.142622 
3314 0.856431 0.100922 0.0568178 0.195562 -4.32295 -0.0131596 -0.607247 -0.254615 
1677 0.930469 0.0749486 0.000528898 0.298856 -4.37863 -0.273341 0.115986 0.818478 
1716 0.907432 0.100702 0.0004779 0.308843 -4.37055 -0.123782 -0.115442 0.550266 
2476 0.905617 0.0768369 0.0313918 0.497898 -4.34313 -0.103704 -0.437803 -0.722174 
2517 0.931631 0.101857 0.0312264 0.658037 -4.25573 -1.3 -0.377739 -1.18244 
3277 0.930283 0.0782351 0.0569167 1.01993 -4.23238 -0.480299 -0.891107 1.31644 
3316 0.905266 0.101091 0.0595669 0.285598 -4.3389 -0.0381926 0.379808 -0.575276 
1680 0.00226545 0.0985301 0.00161633 0.727595 -4.32935 0.835781 0.554046 0.022569 
1679 0.978643 0.0747554 0.00195118 0.120972 -4.36317 -0.146795 0.130681 0.166768 
1718 0.954809 0.0998009 0.00120782 0.160902 -4.40933 0.156598 0.0801835 0.0477955 
2478 0.953767 0.076472 0.0303118 0.139978 -4.31439 0.510068 -0.300529 -0.32472 
2519 0.979797 0.101596 0.0287267 0.583935 -4.34186 -0.514859 -0.554326 0.539503 
3279 0.978356 0.0765424 0.0584658 0.217825 -4.34532 0.24842 -0.557955 0.068039 
3318 0.955143 0.100001 0.0569341 0.492679 -4.29486 0.221888 0.816651 1.28225 
1681 0.0269828 0.124549 0.000529787 0.833744 -4.30401 0.642523 -0.0484822 0.173437 
1721 0.0291235 0.177369 -0.000383139 0.448069 -4.28475 0.559655 -0.368751 -0.22439 
1722 0.0564493 0.152529 0.998694 1.30232 -4.30382 -0.921719 0.278202 0.0333037 
2482 0.0544635 0.12696 0.0246737 1.27846 -4.32824 0.0168167 -0.711941 0.809118 
2521 0.0301005 0.148989 0.0289346 0.829121 -4.30377 -0.750528 1.45708 -0.848503 
2522 0.0525793 0.177809 0.0284451 1.32846 -4.29059 0.772492 -1.17698 -0.27317 
3281 0.0283308 0.125695 0.0557153 0.307664 -4.2808 0.772425 -0.295821 0.855569 
3321 0.0296061 0.176187 0.0575763 0.25901 -4.33679 -0.679851 -0.585547 -0.0630895 
3322 0.0538557 0.150544 0.0554231 0.155447 -4.34566 0.126455 0.0301729 0.139484 
3320 0.00369966 0.149455 0.0581082 0.350534 -4.33295 0.381606 1.04541 -0.265865 
1683 0.0803051 0.127165 0.999305 0.625531 -4.31099 0.22333 -0.099897 -0.43572 
1723 0.0795266 0.176532 -0.000942999 0.244121 -4.3412 0.154243 0.281767 0.394622 
1724 0.103536 0.151557 -0.00235817 0.640912 -4.33802 0.649988 0.435163 0.624576 
2484 0.105343 0.126914 0.0265827 0.2739 -4.32146 -0.461274 -0.200468 0.375125 
2523 0.0796143 0.150581 0.0274792 0.232206 -4.30865 -0.044649 0.474364 -0.125085 
2524 0.105181 0.176846 0.0272677 0.571202 -4.27466 -0.822956 -1.01935 0.970671 
3283 0.0795429 0.1257 0.0549897 0.180484 -4.38067 -0.189681 0.0676602 -0.0497006 
3323 0.0798291 0.17362 0.05468 1.04483 -4.3037 -0.500715 0.802906 0.803268 
3324 0.104086 0.150818 0.0556808 0.142677 -4.32702 -0.0468037 0.0327584 -0.120515 
1685 0.129363 0.125645 1.00089 0.600234 -4.2952 0.471636 0.754997 -0.866215 
1725 0.127888 0.177827 1.00169 0.552788 -4.2569 0.50542 -0.838263 -0.739133 
1726 0.153862 0.151829 1.00092 0.143822 -4.35827 -0.0134604 -0.0175012 -0.425264 
1727 0.17973 0.175201 0.000513122 0.777095 -4.29969 -0.498224 0.320545 0.327759 
2486 0.154714 0.127623 0.0284694 0.386453 -4.3538 -0.32726 -0.700801 0.16974 
2525 0.129309 0.151135 0.0286721 0.1477 -4.36908 -0.266615 0.128569 -0.2329 
2527 0.178645 0.151276 0.0281551 0.310913 -4.34888 0.236576 0.460722 0.409333 
2526 0.152538 0.176264 0.0294625 0.27912 -4.35558 0.75876 -0.570752 0.150043 
3285 0.127966 0.124847 0.0559339 0.703134 -4.29621 0.585239 1.3452 -0.0377052 
3287 0.180347 0.127109 0.057482 0.497364 -4.29008 -1.34363 -0.181429 0.573909 
3325 0.128557 0.175715 0.0575667 0.141789 -4.3633 -0.113805 -0.0212937 -0.182516 
3326 0.154468 0.15056 0.0567713 0.31508 -4.34586 -0.479205 0.230249 0.426274 
3327 0.17907 0.176986 0.0601151 0.882925 -4.29702 -0.381057 -0.279653 -1.16018 
1687 0.178841 0.12594 0.999521 0.217562 -4.37798 0.161556 0.680478 -0.0238377 
1689 0.226116 0.125729 0.998982 1.0246 -4.24014 0.14786 1.25905 0.311258 
1728 0.203541 0.151941 -0.00172626 0.532011 -4.30724 -0.302249 -0.224646 0.721987 
1729 0.226213 0.177136 0.0013782 0.650653 -4.3632 0.158652 -0.0563027 -0.199055 
2488 0.202721 0.127025 0.030472 0.63799 -4.30401 0.221155 -0.083513 -1.53166 
2528 0.203449 0.176086 0.033229 2.20464 -4.2276 -0.625076 0.314 -1.8493 
2529 0.228572 0.14928 0.0273554 1.08731 -4.33971 -0.324418 0.897413 -0.420429 
3289 0.229068 0.127362 0.0557834 0.138502 -4.3618 0.130934 -0.0495488 0.345008 
3328 0.203569 0.151426 0.057406 0.265197 -4.30266 -0.0638627 -0.189163 0.296943 
3329 0.22884 0.174934 0.0536038 1.06649 -4.25874 0.674974 0.666285 0.823657 
1691 0.279435 0.131354 0.995728 0.951354 -4.29095 -0.832103 -0.266971 -0.467532 
1730 0.253949 0.154471 0.998138 0.746852 -4.2109 -0.941486 -0.853302 -0.320102 
1731 0.276183 0.178765 0.996592 0.316312 -4.35452 0.534653 0.357505 0.241887 
2490 0.254584 0.129086 0.0244433 0.687825 -4.34004 -0.0638299 -0.407316 0.207857 
2530 0.252326 0.176144 0.0255619 0.411463 -4.30331 0.0518505 0.859783 0.440707 
2531 0.278561 0.154035 0.025357 0.202566 -4.34807 0.179723 -0.312562 -0.200207 
3291 0.27936 0.128238 0.052764 0.181342 -4.32807 0.0156471 -0.196504 -0.182786 
3330 0.254797 0.151009 0.0541759 0.358888 -4.35414 -0.404635 0.714689 -0.183755 
3331 0.278181 0.178098 0.0516161 0.621157 -4.32357 -0.249173 -0.433935 0.932125 
1693 0.329688 0.131356 0.9909 0.960345 -4.32748 -0.878601 0.111244 0.302729 
1732 0.302886 0.155674 0.995372 0.238076 -4.30374 -0.0837751 -0.069136 -0.810907 
1733 0.32784 0.181003 0.992358 0.880462 -4.34519 -0.390036 -0.379716 0.906219 
1734 0.352648 0.15722 0.993071 0.148832 -4.37463 -0.164933 -0.143891 0.343253 
2492 0.303824 0.130314 0.0210071 0.332919 -4.32276 0.0558153 -0.177157 0.592448 
2494 0.351065 0.130939 0.0217005 0.333458 -4.32803 0.393036 -0.282196 0.0578964 
2532 0.302888 0.177947 0.0243754 0.243963 -4.3536 0.339999 0.61964 -0.576746 
2533 0.326968 0.154356 0.0218649 0.252649 -4.34406 0.523297 0.497252 -0.0225283 
2534 0.350464 0.180593 0.0243393 0.51527 -4.30359 0.496519 -1.02074 -0.529475 
3293 0.326536 0.129647 0.0512218 0.126041 -4.34674 0.224973 -0.309042 0.378263 
3332 0.303819 0.153195 0.0518409 0.249449 -4.39391 -0.246219 0.42257 0.399332 
3333 0.328721 0.178202 0.0534851 0.364837 -4.33989 -0.529095 -0.0842842 0.0431844 
3334 0.351151 0.153106 0.0502506 0.677401 -4.3106 -0.188504 0.693454 0.798977 
1695 0.377568 0.131386 0.995261 0.446794 -4.25309 -0.555349 0.119892 -0.48618 
1735 0.375493 0.181833 0.996753 0.449322 -4.32884 0.258963 0.069676 -0.505194 
1736 0.401363 0.158199 0.994216 0.658351 -4.29131 -0.336918 -0.747038 0.274681 
2496 0.400842 0.129488 0.0236642 0.411848 -4.3196 -0.60823 0.340895 0.00849528 
2535 0.376486 0.154854 0.0223072 0.322025 -4.35906 -0.110232 0.509481 0.450262 
2536 0.401941 0.179677 0.0231719 0.726614 -4.31237 -0.597346 0.0725701 0.905539 
3295 0.374342 0.130932 0.0529817 0.7203 -4.27873 -0.0198836 -1.49725 -0.736794 
3335 0.375851 0.178633 0.0528138 0.19485 -4.39889 0.199685 -0.115168 -0.501678 
3336 0.399496 0.152191 0.0522288 0.391129 -4.34266 0.291659 0.987016 0.246615 
1697 0.424798 0.129507 0.995993 0.43242 -4.33588 -0.396446 0.400205 0.263992 
1737 0.425867 0.180573 -0.00513774 0.985602 -4.26322 -0.353195 0.710573 1.01876 
1738 0.449151 0.154005 0.99973 0.427385 -4.3614 0.218383 0.395396 -0.724034 
2498 0.447915 0.128016 0.0263636 0.211295 -4.34106 0.123088 -0.199756 -0.509201 
2537 0.424054 0.154248 0.0251032 0.147508 -4.3489 -0.105146 -0.190868 -0.182287 
2538 0.448155 0.177954 0.0266183 0.588417 -4.33648 0.652886 0.215912 0.671328 
3297 0.42356 0.126863 0.0532398 0.395443 -4.33599 0.0440525 0.585565 0.256525 
3337 0.424253 0.177393 0.0548737 0.113677 -4.34545 -0.00873003 0.32482 0.124507 
3338 0.447189 0.151574 0.0538592 0.481255 -4.35313 0.562286 0.329708 0.387947 
1699 0.473744 0.128997 0.999403 0.363249 -4.3146 -0.349281 -0.465838 -0.252889 
1701 0.524286 0.123184 0.997803 4.8638 -4.41649 -0.0716198 0.388452 -0.00095205 
1740 0.498419 0.150723 0.00181764 0.556924 -4.27541 0.338998 0.601543 -0.286371 
1741 0.523475 0.176727 0.00369665 0.173415 -4.30271 0.151437 -0.641768 0.359229 
2500 0.498264 0.125744 0.0275844 0.245374 -4.32073 0.252621 -0.410309 -0.417525 
2539 0.473259 0.152017 0.0285715 0.125174 -4.34171 -0.0746602 0.233569 -0.20177 
2540 0.498138 0.175726 0.0285562 0.645996 -4.3423 0.498723 0.0662468 0.856567 
2541 0.523301 0.148366 0.0296053 0.491418 -4.30554 0.12032 0.867386 -0.0477189 
1739 0.474519 0.179016 0.00150577 0.201189 -4.34412 0.00762432 -0.509857 -0.00467789 
3299 0.473529 0.125777 0.0535169 0.810397 -4.33109 -0.145738 0.584371 0.977942 
3301 0.522491 0.124175 0.0568943 0.203863 -4.34369 0.0296509 0.411758 0.614652 
3339 0.47396 0.174456 0.0585212 0.537119 -4.34878 -0.53034 0.539224 -0.173924 
3340 0.497591 0.150465 0.0569473 0.152542 -4.37053 0.399818 -0.18059 0.242986 
3341 0.521964 0.17557 0.0604039 0.135284 -4.35653 0.0614313 -0.27757 -0.31129 
1703 0.573498 0.122434 0.00594472 0.257574 -4.29738 -0.212687 0.171999 0.351948 
1742 0.548928 0.149017 0.00180661 0.77093 -4.35399 -0.730873 0.353503 0.459342 
1743 0.572074 0.1756 0.00607567 0.190256 -4.34647 0.524532 -0.00823913 0.422785 
2502 0.547045 0.123681 0.0293532 0.467285 -4.33956 0.202119 0.297742 0.500073 
2542 0.547212 0.175155 0.0331995 0.0896111 -4.32332 -0.121814 -0.0935512 0.0484206 
2543 0.572297 0.149415 0.0344741 0.145669 -4.35932 -0.587498 0.242911 -0.546424 
3303 0.570401 0.124938 0.0622202 0.154741 -4.31962 0.387581 -0.289576 -0.594861 
3342 0.546642 0.150286 0.0615677 0.146998 -4.33193 0.0512528 -0.0688121 -0.692969 
3343 0.570861 0.175732 0.0636102 0.205981 -4.34852 -0.501779 -0.0650773 -0.295341 
1705 0.621053 0.124311 0.00875454 0.294745 -4.36068 -0.53217 -0.0363501 -0.150792 
1744 0.597346 0.148922 0.00785536 0.186157 -4.34471 -0.395465 0.396546 0.0637402 
1745 0.620116 0.173471 0.00970526 0.573943 -4.29057 -0.207552 1.03677 -0.349863 
2504 0.596592 0.124446 0.0359331 0.187298 -4.3896 -0.386036 -0.399641 0.0735665 
2544 0.597337 0.175322 0.036426 0.601768 -4.3306 -1.03905 -0.187633 -0.037932 
2545 0.619066 0.149865 0.0391378 0.163029 -4.35671 0.289494 0.30489 -0.249097 
1746 0.643487 0.150509 0.0100102 0.305975 -4.33623 0.486603 -0.497477 0.717393 
2506 0.640733 0.124455 0.0403201 0.708738 -4.28329 1.59848 0.116541 -0.50803 
2546 0.642114 0.176459 0.0393787 0.638377 -4.32955 0.198388 -0.835906 0.936885 
3305 0.618718 0.125711 0.0660968 0.24836 -4.27746 -0.830331 -0.613394 0.600129 
3344 0.593247 0.15013 0.0646446 0.322295 -4.36242 0.779426 0.320314 0.379482 
1707 0.666714 0.124144 0.0127798 0.255358 -4.35444 0.134514 0.42398 0.0816288 
1747 0.66841 0.176359 0.0149333 0.313416 -4.34885 0.0919074 -0.385602 -0.263603 
1748 0.69218 0.150043 0.016095 0.321118 -4.3502 -0.911483 0.0323612 -0.078806 
2508 0.688493 0.123656 0.0435013 0.481662 -4.296 0.171721 0.703597 0.0202865 
2547 0.665179 0.150899 0.0412558 0.442708 -4.36233 0.0392044 -0.510425 0.136026 
2548 0.69043 0.174353 0.0468244 0.480254 -4.30745 0.156383 0.115446 -1.42558 
1709 0.712703 0.124643 0.0161975 0.77117 -4.3142 0.712104 -0.253414 0.45301 
1749 0.71537 0.174735 0.0174841 0.240581 -4.35882 -0.267925 -0.224026 0.749703 