ITEM: TIMESTEP
0
ITEM: NUMBER OF ATOMS
28567
ITEM: BOX BOUNDS pp pp pp
1.9810618739072083e-02 7.0380189381261246e+01
1.9810618739072083e-02 7.0380189381261246e+01
1.9810618739072083e-02 7.0380189381261246e+01
ITEM: ATOMS id xs ys zs c_csym c_peratom fx fy fz 
802 0.047271 0.0246514 0.0223335 0.421628 -4.36226 0.935969 0.0623246 -0.0144748 
841 0.0236037 0.0497135 0.0214626 0.410638 -4.38801 0.0232508 1.08978 0.370452 
1601 0.0243502 0.0261572 0.0469373 0.455974 -4.36169 -0.372877 -0.363929 1.0332 
1642 0.0477524 0.0503091 0.0479532 0.287941 -4.37491 0.714624 0.0222666 -0.0458761 
1600 0.000310909 0.000952547 0.0497322 0.482708 -4.35414 -0.0915241 -0.240614 -0.684623 
1602 0.0481679 0.00110358 0.0495188 0.594506 -4.29736 0.443502 -0.19134 -1.26828 
804 0.0993916 0.0252382 0.021604 0.28839 -4.36979 -0.167001 0.152919 0.932834 
843 0.0744453 0.0495423 0.0222063 0.361365 -4.36021 -1.04895 0.597758 0.355723 
1603 0.0722546 0.0239668 0.0474963 0.580366 -4.36912 0.606081 0.329283 -0.336013 
1644 0.0968663 0.0492406 0.0472009 0.612038 -4.32404 0.8635 0.105008 0.198112 
806 0.148605 0.0248299 0.0224236 0.17491 -4.40144 0.40072 -0.0301852 0.144304 
807 0.174095 9.26802e-05 0.0230757 0.108934 -4.40696 0.0879981 -0.242429 0.00200779 
845 0.123736 0.049487 0.0231624 0.118869 -4.40093 0.0854537 -0.0768508 0.723465 
847 0.174432 0.0499526 0.0237686 0.115298 -4.39759 0.138792 -0.21121 -0.337773 
1605 0.123989 0.0243342 0.0481938 0.246319 -4.34458 -0.00525044 0.561369 -0.449 
1606 0.148659 0.000950106 0.0474526 0.135161 -4.36676 0.405955 -0.219023 0.352264 
1607 0.173685 0.0253768 0.0473194 0.362454 -4.33598 0.629064 -0.341356 0.715466 
1646 0.149727 0.0483667 0.0482854 0.35989 -4.33429 -0.551336 0.66405 -0.0141627 
805 0.123671 0.000235493 0.0230507 0.188609 -4.40733 0.35919 0.0118034 -0.596941 
808 0.199906 0.0240278 0.0246052 0.357233 -4.40794 -0.143675 0.422831 -0.324511 
849 0.224273 0.0493234 0.0233933 0.150009 -4.41182 0.306412 0.197998 -0.270789 
1609 0.225641 0.0253883 0.0467715 0.708232 -4.31435 -0.1628 -0.907993 0.897615 
1648 0.200072 0.049925 0.0502206 0.400049 -4.38493 -0.446761 -0.321293 -0.768606 
810 0.249649 0.0233455 0.0210588 0.806509 -4.34783 0.244234 0.906609 0.91411 
811 0.275132 0.000492671 0.022262 0.330339 -4.41559 -0.0725479 -0.436656 0.290865 
851 0.273687 0.0496698 0.0248041 0.682988 -4.36403 0.429348 -0.450237 -0.854012 
1611 0.274966 0.0237641 0.048476 0.286365 -4.35941 0.224602 0.734962 -0.0176714 
1650 0.248819 0.0490144 0.0484753 0.252212 -4.32339 0.968307 0.0703577 0.0235393 
1610 0.251144 2.80225e-05 0.0484141 0.242982 -4.34386 -0.557622 0.0967726 0.117568 
812 0.300151 0.0247498 0.0227135 0.153727 -4.40258 -0.0437482 0.457965 0.558059 
813 0.324782 0.000399732 0.023562 0.192504 -4.41097 0.186664 -0.504899 0.11053 
814 0.350906 0.0244392 0.0217992 0.348932 -4.38064 -0.32461 0.96481 0.611059 
853 0.32613 0.0498623 0.0221868 0.204378 -4.38572 -0.474626 -0.479807 -0.165143 
1613 0.324539 0.0252319 0.04842 0.17028 -4.3601 0.417218 -0.0715836 0.109266 
1614 0.35076 0.00037504 0.0473416 0.267972 -4.34683 -0.551859 0.349043 0.339928 
1652 0.300945 0.0507827 0.0487172 0.351859 -4.31494 -0.472045 -0.829854 -0.153894 
1654 0.350436 0.0505758 0.047393 0.216233 -4.32294 -0.101306 -0.57569 0.722607 
815 0.375735 0.0012744 0.0236894 0.34558 -4.36938 -0.0966011 -0.548452 -0.655312 
816 0.399817 0.0247428 0.0222471 0.176405 -4.40223 -0.179263 0.368415 0.0868571 
855 0.375061 0.0512879 0.0221516 0.311651 -4.38646 -0.282472 -1.08572 0.194887 
1615 0.375261 0.0256493 0.0486303 0.145178 -4.36238 0.18467 0.294627 -0.0444705 
1616 0.400174 0.000763155 0.0489162 0.160852 -4.38053 0.174017 0.149792 0.0231768 
1656 0.399664 0.0502767 0.0475739 0.189795 -4.37749 -0.0309033 0.114405 0.249168 
818 0.450221 0.0256615 0.0219398 0.201806 -4.39711 -0.594075 -0.470712 0.391834 
857 0.424803 0.0498267 0.0225415 0.153958 -4.43145 0.12238 0.305452 0.153232 
1617 0.424003 0.0257695 0.0480179 0.207548 -4.34692 0.529291 -0.331873 -0.215644 
1618 0.448534 0.00065284 0.048728 0.237245 -4.35544 0.392475 -0.00781361 -0.674783 
1658 0.449756 0.0499316 0.0484208 0.103036 -4.36284 -0.206575 -0.0191552 -0.146487 
817 0.423308 0.000251336 0.0213527 0.367905 -4.4018 0.859554 0.284266 0.334369 
820 0.497764 0.0255342 0.0233403 0.37616 -4.37125 0.812363 -0.69483 -0.132833 
859 0.473665 0.0500302 0.0236303 0.376968 -4.37755 0.313451 0.519572 -0.391382 
861 0.525171 0.0498926 0.0238664 0.19357 -4.38384 -0.0142448 0.284374 0.34664 
1619 0.474327 0.0245316 0.0480654 0.131204 -4.37353 -0.257653 -0.00109986 0.257744 
1621 0.52201 0.0242556 0.0479433 0.716957 -4.33596 1.07079 -0.0412255 0.44898 
1660 0.499356 0.0492391 0.0468428 0.462388 -4.33207 -0.113089 1.07751 0.796459 
819 0.474368 0.00042504 0.0226977 0.145465 -4.38774 -0.371972 -0.362501 -0.378487 
62 0.550586 0.0506697 0.00110174 13.9565 -3.74182 -0.0953389 -0.197965 -0.61849 
822 0.548216 0.022479 0.0238568 1.03934 -4.36525 0.58424 0.816594 0.172788 
863 0.573679 0.048025 0.0244988 0.817264 -4.34961 0.349692 1.24022 -0.144463 
1623 0.575477 0.0247776 0.0473624 0.427421 -4.31698 -0.413865 -0.229085 1.07195 
1662 0.549961 0.0492316 0.0500748 0.459551 -4.38199 -0.401587 0.139452 -0.7173 
823 0.574314 0.000233686 0.0239167 0.225902 -4.42439 0.178798 -0.29562 0.0154504 
1622 0.549097 7.82081e-05 0.0498538 0.279351 -4.32405 0.392404 0.18097 -0.264923 
824 0.600065 0.0246506 0.0241297 0.20108 -4.37151 0.344157 0.463339 -0.329433 
825 0.625233 0.000252506 0.0240469 0.200904 -4.3978 0.19991 -0.141964 -0.693224 
865 0.624306 0.0509577 0.0226538 0.230025 -4.37851 0.803106 -0.102009 0.320102 
1625 0.625587 0.0260445 0.0469278 0.303919 -4.35348 -0.252471 0.137547 0.68064 
1664 0.599723 0.0506135 0.0475562 0.181126 -4.35903 0.294078 -0.283092 0.698748 
1624 0.601063 0.000609538 0.0481663 0.173948 -4.37373 -0.315862 -0.190901 0.500569 
826 0.650516 0.025175 0.0221094 0.165938 -4.3997 0.146798 -0.314401 0.202926 
828 0.699448 0.0257228 0.0221656 0.144 -4.40791 -0.0960508 0.0866423 0.011353 
867 0.675003 0.0499756 0.0211503 0.245881 -4.37077 0.477479 -0.0303637 0.514163 
1626 0.649533 0.000559834 0.0479632 0.146727 -4.36867 0.755321 0.212451 -0.138238 
1627 0.675441 0.0258262 0.0483448 0.194683 -4.37725 -0.290867 -0.324579 -0.0508759 
1628 0.699624 3.1542e-05 0.0483936 0.092932 -4.3612 -0.0263583 -0.212888 -0.0210505 
1666 0.651171 0.0499569 0.0481207 0.204116 -4.36527 -0.422654 0.405064 -0.442036 
1668 0.700534 0.0493329 0.0472715 0.239118 -4.32782 -0.458008 0.535754 0.349696 
827 0.675554 0.000210189 0.0221974 0.162794 -4.39679 -0.559191 0.336635 0.271446 
830 0.748036 0.0255667 0.0226402 0.375045 -4.3793 0.569944 -0.641705 0.298255 
869 0.724661 0.0505285 0.0213539 0.188329 -4.37644 -0.108041 -0.073909 0.245304 
1629 0.722974 0.0241681 0.0475488 0.479306 -4.34343 0.963117 0.301394 0.263792 
1670 0.750194 0.049505 0.0472403 0.132401 -4.38172 -0.265618 0.197592 0.275406 
1630 0.75046 0.000255937 0.0496486 0.602209 -4.31123 -0.545228 -0.13897 -1.27188 
832 0.801039 0.0250444 0.0217431 0.333986 -4.3797 -0.478745 -0.0967632 0.725888 
871 0.775558 0.0497819 0.0227711 0.217492 -4.37858 -0.439397 0.164371 0.16386 
1631 0.77558 0.025304 0.0487449 0.22629 -4.34589 0.083784 -0.418324 -0.800308 
1632 0.80181 0.00021295 0.0483189 0.377553 -4.3455 -0.891255 -0.343589 -0.420743 
1672 0.800881 0.0492624 0.049341 0.432056 -4.30632 -0.417609 0.167561 -1.21161 
834 0.851922 0.0240266 0.0237803 0.559817 -4.37191 -0.577936 0.730089 -0.583371 
835 0.877573 0.00146515 0.0225423 0.507724 -4.38927 -0.510017 0.0975454 0.320249 
873 0.825689 0.0494852 0.0228203 0.123855 -4.38612 -0.443543 -0.28771 -0.0752524 
875 0.876713 0.0499792 0.0238549 0.30797 -4.43006 0.0986655 -0.0878758 -0.377495 
1633 0.824926 0.0246904 0.0480023 0.151217 -4.3647 0.69583 0.212491 -0.136688 
1635 0.874605 0.0257449 0.0495336 0.304732 -4.33114 0.54226 -0.228035 -0.304144 
1674 0.850495 0.0501539 0.0477016 0.219071 -4.37738 -0.130444 -0.192425 0.354515 
833 0.825347 3.77177e-05 0.0223979 0.198938 -4.3887 0.101665 0.0154171 -0.100697 
836 0.903718 0.0246695 0.0240595 1.48587 -4.32332 -1.43884 0.874414 -0.408374 
877 0.924873 0.0510606 0.0217864 0.268452 -4.3823 0.252356 0.292919 0.391847 
1637 0.925249 0.0269543 0.0498902 0.515969 -4.33338 0.111317 -0.434159 -0.314108 
1676 0.900292 0.0508794 0.0498314 0.307867 -4.32923 0.232092 -0.204555 -0.808922 
837 0.925881 0.000129816 0.0220422 0.518849 -4.33764 -0.12694 0.192539 0.846664 
1636 0.900415 0.00165525 0.0489488 0.302142 -4.36795 -0.116716 -0.460881 0.215777 
800 0.999137 0.0257256 0.0231625 5.29265 -4.23753 0.450446 -0.262188 -0.422444 
1640 0.998509 0.0501866 0.0480745 0.104561 -4.39131 0.0294638 0.190642 0.00960125 
838 0.949044 0.0262151 0.0234472 0.428286 -4.44129 0.385318 -0.160471 -0.821282 
879 0.975507 0.0508372 0.0209776 0.344355 -4.408 -0.443148 -0.149532 0.6709 
1638 0.949821 0.00168948 0.0475538 0.315392 -4.35867 -0.293153 -0.409762 0.70515 
1639 0.975052 0.0247331 0.0472376 0.389505 -4.33109 -0.376853 0.672882 0.77354 
1678 0.950502 0.0505215 0.0473726 0.261199 -4.3596 -0.20408 0.36636 0.454423 
839 0.975297 0.000507192 0.0237158 5.13343 -4.24481 -0.227948 0.16395 -0.602361 
842 0.0498032 0.0759011 0.0234954 0.246661 -4.39548 -0.628417 -0.394092 -0.405586 
881 0.0247276 0.10158 0.0241414 0.298323 -4.38041 -0.452131 -0.727628 0.0773623 
1641 0.0237507 0.0750733 0.0492203 0.152961 -4.34685 0.037946 0.156803 -0.636525 
1682 0.0484276 0.100134 0.0493696 0.331878 -4.36158 0.250055 0.28421 0.082141 
844 0.0996899 0.0743898 0.0239426 0.213755 -4.41884 -0.626661 0.520851 0.0836469 
883 0.0739388 0.100431 0.023043 0.17744 -4.38049 0.332889 -0.330441 0.366284 
1643 0.073382 0.0761099 0.0476565 0.341035 -4.34022 0.25545 -0.430273 0.431397 
1684 0.099064 0.0999669 0.0483648 0.129264 -4.34785 0.129197 -0.0755892 -0.181894 
846 0.1485 0.0742553 0.0246074 0.253918 -4.40713 0.303928 0.0587186 -0.542192 
885 0.124516 0.100583 0.0239149 0.235298 -4.40832 0.163542 -0.364434 -0.118907 
887 0.174067 0.0989109 0.0231461 0.152232 -4.39902 0.0600936 -0.0600007 0.703545 
1645 0.124398 0.0742894 0.0487041 0.155008 -4.35791 -0.386782 0.00718677 -0.300797 
1647 0.174012 0.073343 0.0490689 0.131481 -4.37734 0.130341 0.37586 -0.113802 
1686 0.14864 0.0986969 0.0490808 0.112717 -4.33588 0.18726 0.615743 -0.103934 
45 0.123418 0.074512 0.000486819 14.7796 -3.77243 0.473332 0.193035 -0.664287 
47 0.174924 0.0749321 5.20466e-05 14.777 -3.78541 -0.0833503 -0.331818 -0.485056 
848 0.20064 0.0737506 0.0232633 0.284874 -4.38888 -0.470617 0.0610861 0.296263 
889 0.224657 0.0978259 0.0238506 0.247951 -4.38604 -0.0752378 0.62637 0.214383 
1649 0.225365 0.0731376 0.0496916 0.225684 -4.34523 -0.261197 0.171884 -0.331852 
1688 0.200133 0.096634 0.0490241 0.55347 -4.34577 -0.746709 0.789869 -0.134443 
850 0.249086 0.0751289 0.0229847 0.372558 -4.39231 0.0945445 -0.648364 0.153746 
891 0.274215 0.099138 0.0239708 0.232507 -4.39044 0.00263977 0.0526885 -0.735357 
1651 0.274627 0.073843 0.0482048 0.225073 -4.37759 -0.0211868 0.491129 0.38017 
1690 0.248754 0.0974649 0.0502273 0.543844 -4.3387 0.386216 0.612252 -0.702451 
852 0.30042 0.0738323 0.0228138 0.220388 -4.411 -0.300404 -0.00467192 -0.0170252 
854 0.348715 0.0742437 0.0232013 0.409455 -4.36958 0.715441 0.731166 -0.719557 
893 0.323883 0.099095 0.0232985 0.361209 -4.37205 0.947397 0.476865 -0.619701 
1653 0.324542 0.0743129 0.0464394 0.472373 -4.30056 0.539563 0.3219 1.31805 
1692 0.300074 0.100146 0.0474448 0.222182 -4.35707 -0.609982 -0.578177 0.512236 
1694 0.3503 0.0997789 0.0471818 0.218963 -4.34587 -0.463405 0.0581417 0.44839 
856 0.398805 0.0751415 0.0232953 0.175658 -4.38595 0.448449 -0.131011 -0.10366 
895 0.374456 0.0994725 0.0233155 0.136109 -4.3954 -0.209713 -0.235466 -0.310839 
1655 0.374089 0.0745807 0.0487129 0.250897 -4.34013 0.580116 0.128242 0.0188919 
1696 0.399944 0.0990328 0.0484035 0.142693 -4.37782 -0.556907 0.279074 -0.0690454 
858 0.45015 0.0745196 0.0211877 0.488012 -4.39118 -0.397433 0.363107 0.736975 
897 0.424066 0.0990482 0.0225929 0.139829 -4.40648 0.454118 0.314551 0.12146 
1657 0.42543 0.0759803 0.0475741 0.22651 -4.37376 -0.0319455 -0.655135 -0.176291 
1698 0.449865 0.100689 0.0482843 0.185838 -4.36537 -0.0680772 -0.130232 -0.239993 
860 0.500908 0.0757831 0.0226887 0.357823 -4.39274 -0.972399 -0.37849 0.241955 
899 0.473692 0.100977 0.0231335 0.250179 -4.40373 0.552995 -0.471439 -0.0917983 
901 0.524404 0.10105 0.0235384 0.197751 -4.39361 0.424011 -0.0758531 -0.432848 
1659 0.474162 0.075142 0.0481506 0.0825208 -4.37022 0.414385 -0.0327441 -0.219652 
1661 0.524579 0.0756112 0.048056 0.195776 -4.35957 -0.0584732 -0.434104 0.324706 
1700 0.499416 0.10019 0.0475775 0.145179 -4.37103 -0.050872 0.113017 0.575759 
862 0.549608 0.07613 0.0243379 0.200498 -4.3745 0.0181385 -0.429189 -0.206957 
903 0.574224 0.0997683 0.0246009 0.380105 -4.35438 0.037243 0.644026 -0.944744 
1663 0.575345 0.0753805 0.0479255 0.233735 -4.36317 -0.346709 -0.237965 0.517805 
1702 0.549499 0.0995676 0.0483202 0.204343 -4.3129 0.0645356 0.484043 0.125299 
864 0.599887 0.0749923 0.0243109 0.268933 -4.36477 -0.257786 0.488977 -0.829797 
905 0.624878 0.100315 0.0237487 0.0865354 -4.39581 -0.0996221 -0.082259 0.191551 
1665 0.625072 0.0756811 0.0475498 0.145014 -4.35721 0.31657 -0.235179 0.411032 
1704 0.599373 0.100888 0.0471339 0.368708 -4.32257 0.170416 0.132162 1.21965 
866 0.651409 0.0761729 0.0229109 0.301173 -4.4069 -0.168239 -0.401996 0.315813 
868 0.700567 0.0744871 0.0218211 0.158932 -4.40965 -0.0907711 -0.05897 0.207987 
907 0.676831 0.101151 0.0239421 0.514744 -4.36245 -0.585414 -0.659614 0.05297 
1667 0.676061 0.0737158 0.0487173 0.384021 -4.36061 -0.126036 0.302993 -0.164302 
1706 0.652069 0.0997104 0.0490946 0.491877 -4.34765 -0.6178 0.318363 -0.24081 
1708 0.700355 0.0982782 0.0481312 0.508024 -4.35644 0.278015 0.750523 0.116598 
870 0.749104 0.0754309 0.0215937 0.373838 -4.4087 0.662732 -0.224194 0.293976 
909 0.725432 0.1007 0.0231151 0.188388 -4.41763 -0.629755 -0.194138 -0.396759 
1669 0.725172 0.0744019 0.0483923 0.230182 -4.35042 -0.0858814 -0.269632 -0.318424 
1710 0.749868 0.0990216 0.046386 0.576178 -4.3356 0.546188 0.603815 0.526724 
872 0.799159 0.0744382 0.0221092 0.324078 -4.39932 0.244471 0.196757 0.397406 
911 0.776251 0.102174 0.0225712 0.591825 -4.33181 -0.52685 -1.08648 0.780642 
1671 0.774992 0.0758943 0.0482996 0.316297 -4.32844 0.251136 -0.714929 -0.887848 
1712 0.800447 0.0995138 0.0476791 0.224698 -4.3711 -0.0732291 0.56343 0.0670896 
874 0.849168 0.0747179 0.0244549 0.349921 -4.37888 0.635495 0.521896 -0.542687 
913 0.824665 0.101588 0.0230764 0.358668 -4.38486 -0.234786 -1.01447 0.21901 
915 0.875841 0.100156 0.0229954 0.318643 -4.41308 -0.374266 0.0554109 0.390933 
1673 0.82423 0.0736913 0.0469738 0.528368 -4.32206 0.304256 0.822453 0.534152 
1675 0.875702 0.0748003 0.0487873 0.207967 -4.35827 0.0621965 0.410172 -0.736999 
1714 0.849402 0.100137 0.0484534 0.163953 -4.37232 0.273289 -0.0671369 -0.290241 
876 0.901614 0.0764328 0.0220132 0.37638 -4.34792 -0.700426 -0.543278 0.441432 
917 0.924242 0.100898 0.0210729 0.211362 -4.3897 0.553576 0.339864 0.784357 
1677 0.924785 0.0759957 0.0475554 0.094695 -4.36272 0.306978 -0.0810414 0.247425 
1716 0.899424 0.101738 0.0493481 0.35822 -4.34519 0.400822 -0.261056 -0.927734 
840 0.998753 0.0758049 0.0229308 0.194019 -4.42679 0.500961 0.21287 -0.180855 
1680 0.998874 0.100361 0.0492327 0.235118 -4.33865 0.340043 0.629289 -0.477706 
878 0.950456 0.0759741 0.0212404 0.118974 -4.41917 -0.587741 -0.201801 0.197744 
919 0.973229 0.100248 0.021962 0.243872 -4.385 0.586363 0.526224 0.0448913 
1679 0.97379 0.0769492 0.0479358 0.30092 -4.34755 -0.000160007 -0.82363 -0.227543 
1718 0.949493 0.101435 0.0478384 0.137691 -4.34984 -0.442396 -0.0167212 0.0309966 
81 0.0245965 0.1257 0.000500622 14.8257 -3.81014 0.103948 0.139737 -0.532552 
882 0.0500064 0.12453 0.0243664 0.231588 -4.40134 -0.189073 0.313841 -0.0574126 
921 0.0242342 0.150826 0.0241893 0.205036 -4.38698 0.595147 -0.201495 -0.518659 
922 0.0516171 0.175623 0.024436 0.609164 -4.3716 -0.711946 0.0843494 -0.806344 
1681 0.0229409 0.127503 0.0484375 0.644982 -4.35972 0.503221 -0.749939 0.221111 
1721 0.0258463 0.175541 0.0474245 0.2398 -4.37934 -0.355398 -0.070824 0.358857 
1722 0.051382 0.150845 0.0474882 0.621551 -4.34026 -0.957349 -0.455877 0.761425 
920 0.0001532 0.174933 0.0226203 0.153034 -4.38063 -0.591456 0.295687 -0.317183 
884 0.0995735 0.12418 0.024054 0.211251 -4.38768 -0.502835 0.473963 -0.482301 
923 0.0742555 0.149638 0.0234518 0.178328 -4.35905 0.731697 -0.0664964 -0.105486 
924 0.0994087 0.1743 0.0235555 0.226545 -4.40744 -0.478119 0.132009 0.475414 
1683 0.0744213 0.124773 0.0489992 0.129387 -4.36898 0.266613 -0.0217815 0.0482356 
1723 0.0745268 0.174842 0.0506483 0.61021 -4.31769 0.533476 0.602659 -0.760711 
1724 0.0984702 0.151183 0.04862 0.490073 -4.37861 0.455713 -0.662223 0.0880755 
886 0.148932 0.124373 0.0222557 0.300921 -4.39079 0.169 -0.070462 0.808096 
925 0.12313 0.148391 0.0238918 0.630598 -4.40591 0.512814 0.685389 -0.014726 
926 0.149334 0.174372 0.0257509 0.38745 -4.35288 0.20569 0.484041 -1.07009 
927 0.173854 0.149168 0.0246741 0.20342 -4.35359 0.0931209 -0.0292623 -0.380323 
1685 0.123319 0.125142 0.0482922 0.168367 -4.32178 0.820029 -0.0405725 0.40577 
1687 0.173483 0.124175 0.0478792 0.174823 -4.35648 0.145488 -0.403502 0.512016 
1725 0.125344 0.17596 0.04787 0.43464 -4.32879 -0.603391 -0.512505 0.347471 
1726 0.149333 0.150805 0.0491617 0.315279 -4.31192 -0.444707 -1.03635 -0.111172 
1727 0.174211 0.173751 0.0485435 0.38532 -4.34546 0.417596 0.766771 0.395062 
125 0.124235 0.174561 0.000342067 15.7458 -3.81279 0.208035 -0.227053 -0.347971 
126 0.149142 0.150186 0.000128914 15.4434 -3.79607 0.379887 0.0240076 -0.299292 
888 0.198715 0.123349 0.0238091 0.234348 -4.37887 0.174971 -0.148799 0.662165 
928 0.199689 0.175779 0.0236363 0.531077 -4.34363 -0.607275 -1.17303 0.6676 
929 0.224374 0.149636 0.0241531 0.242217 -4.39287 -0.335519 0.0744086 -0.0676097 
1689 0.223443 0.123109 0.047961 0.193406 -4.38146 0.420488 0.137274 0.241624 
1728 0.199272 0.149145 0.048669 0.0415621 -4.38041 -0.0538999 0.162461 -0.0706208 
1729 0.22497 0.174821 0.0497939 0.444364 -4.32801 -0.590968 0.173277 -1.16946 
128 0.196705 0.146706 0.000420084 11.9604 -3.74342 0.657413 1.16438 -0.335109 
890 0.249106 0.123813 0.0233736 0.225247 -4.37394 0.240849 -0.272517 -0.320324 
930 0.249865 0.176106 0.0235456 0.566163 -4.35561 -0.556784 -0.668422 0.215854 
931 0.275429 0.148341 0.0222913 0.55879 -4.36576 -0.429634 0.656798 0.315507 
1691 0.273523 0.12336 0.0472115 0.291107 -4.33285 0.313624 0.226664 0.740626 
1730 0.248961 0.148636 0.0469751 0.270805 -4.36861 0.435874 0.242732 0.437286 
1731 0.273363 0.175002 0.0485802 0.308908 -4.33871 -0.0795079 -0.378812 -0.442707 
130 0.251042 0.151677 5.50335e-05 13.4256 -3.76885 -0.470799 -0.68261 -0.378456 
892 0.299564 0.124165 0.0232275 0.232579 -4.38147 -0.0683134 0.368798 -0.580154 
894 0.349525 0.125511 0.0213502 0.315435 -4.39003 -0.40118 -0.488053 0.450805 
932 0.299648 0.175614 0.0233442 0.150829 -4.44042 0.142033 -0.102848 0.0198643 
933 0.324694 0.150268 0.0218815 0.153603 -4.4034 -0.531996 0.181874 0.444396 
934 0.349332 0.175805 0.023378 0.128208 -4.39261 0.11624 0.387092 -0.341673 
1693 0.324354 0.124289 0.0470075 0.129721 -4.35781 0.433233 0.653884 0.324407 
1732 0.298097 0.149982 0.046802 0.370398 -4.34647 0.895915 -0.255072 0.258617 
1733 0.32512 0.17518 0.0477521 0.0965358 -4.34966 -0.120776 0.143605 0.105019 
1734 0.349093 0.150376 0.0476337 0.0904188 -4.36431 -0.125448 -0.314925 0.0868868 
896 0.398629 0.12344 0.0223601 0.297795 -4.40464 0.252316 0.948022 0.421339 
935 0.373359 0.151131 0.0237366 0.243859 -4.3957 0.219808 -0.53664 -0.328454 
936 0.39795 0.174228 0.023713 0.439408 -4.39023 0.738025 0.380511 -0.163716 
1695 0.3735 0.125054 0.0472316 0.269984 -4.35945 0.416 -0.47361 0.109348 
1735 0.374051 0.175801 0.0490438 0.209952 -4.36462 0.0646926 -0.370143 -0.20453 
1736 0.399332 0.148817 0.0483826 0.241254 -4.34381 0.00269698 0.620612 -0.556567 
898 0.44892 0.123947 0.0219199 0.289981 -4.37549 0.0459523 0.509096 0.740216 
937 0.424809 0.150218 0.0228311 0.338759 -4.3978 -0.628064 -0.403177 0.200555 
938 0.448429 0.174613 0.0228432 0.277154 -4.38011 0.605483 -0.391691 0.476597 
1697 0.423522 0.124526 0.047411 0.205523 -4.35777 0.68257 0.0249404 -0.045717 
1737 0.423936 0.175508 0.0488083 0.160116 -4.37213 0.0441786 -0.353583 0.120263 
1738 0.448986 0.149452 0.0491655 0.180926 -4.37602 0.00482576 0.0676118 -0.312865 
900 0.499442 0.125098 0.023523 0.090158 -4.42182 0.0856741 0.187693 -0.303211 
939 0.474336 0.150002 0.0224808 0.237151 -4.39821 -0.237841 -0.177788 0.679887 
940 0.499273 0.174396 0.0246696 0.304674 -4.38424 0.437113 0.498712 -0.0590901 
941 0.525014 0.149446 0.0229821 0.211857 -4.39768 0.0344063 0.418611 0.260352 
1699 0.474189 0.126279 0.0487963 0.332276 -4.34084 0.0695117 -0.605677 -0.109452 
1701 0.525382 0.124894 0.0476523 0.153757 -4.3749 -0.245533 0.114447 0.693782 
1739 0.473642 0.175153 0.0483097 0.319464 -4.36138 0.473642 -0.782289 0.101802 
1740 0.49957 0.149343 0.0489176 0.0715674 -4.35179 -0.0667538 0.100954 -0.169754 
1741 0.524857 0.173474 0.0487735 0.244857 -4.3591 0.195468 0.510353 -0.347789 
902 0.549242 0.125291 0.0228406 0.137736 -4.39649 0.185718 -0.283568 0.347661 
942 0.551767 0.175218 0.0251531 0.632777 -4.3635 -1.09436 0.0312291 -0.946505 
943 0.574686 0.15009 0.02396 0.134767 -4.39392 0.381591 -0.047677 -0.0951093 
1703 0.573671 0.124352 0.0494169 0.304087 -4.3433 0.449854 0.421227 -0.370286 
1742 0.550298 0.149793 0.0484991 0.106555 -4.39233 -0.0379436 -0.0291692 0.19989 
1743 0.575595 0.175067 0.0492561 0.111057 -4.34204 0.202196 -0.031334 0.337551 
105 0.625455 0.124551 0.000278503 14.8701 -3.78719 -0.127098 -0.0356675 -0.496112 
904 0.59875 0.124863 0.0228984 0.268972 -4.40077 0.130597 0.20696 0.156096 
944 0.599966 0.173968 0.0230405 0.288488 -4.40789 -0.26929 0.4934 0.206268 
945 0.624151 0.150016 0.0230341 0.252415 -4.38289 0.2383 -0.14416 0.682087 
1705 0.624509 0.126188 0.0484336 0.243881 -4.33963 0.20168 -0.456559 -0.0812007 
1744 0.598755 0.14933 0.0489111 0.223059 -4.35554 0.432627 0.134025 -0.147303 
1745 0.624681 0.1753 0.048636 0.077623 -4.36644 0.132446 -0.211659 -0.0843881 
906 0.649662 0.125073 0.0252139 0.344264 -4.40174 0.434608 -0.183756 -0.00326832 
908 0.701308 0.126662 0.0235539 0.513495 -4.38341 -0.157744 -0.812941 0.00176312 
946 0.650245 0.174676 0.0239301 0.142823 -4.37419 -0.174517 0.253342 0.166727 
947 0.675099 0.149246 0.0235315 0.28613 -4.39966 0.384104 0.612334 0.339921 
948 0.701619 0.174936 0.0248854 0.532474 -4.37675 -0.81688 0.0530151 -0.915927 
1707 0.677067 0.125599 0.0486849 0.4151 -4.33267 -0.883341 -0.228615 0.0702483 
1746 0.650013 0.151102 0.0485304 0.263674 -4.36136 0.344485 -0.238829 0.37149 
1747 0.677381 0.174807 0.0491968 0.662393 -4.33436 -1.07519 0.359276 0.21097 
1748 0.700108 0.14996 0.0491688 0.149461 -4.31166 0.374531 -0.0772806 0.0391824 
146 0.650725 0.148655 0.000360774 14.5293 -3.80374 -0.246819 0.386022 -0.486944 
910 0.750067 0.124978 0.0240156 0.389954 -4.38382 0.211893 0.657052 -0.378155 
949 0.725385 0.150312 0.0229429 0.214371 -4.40148 0.161225 0.223734 0.345353 
1709 0.726001 0.125367 0.0479569 0.224352 -4.36391 -0.579344 -0.398583 0.567167 
1749 0.723412 0.175223 0.0491246 0.441472 -4.34555 0.773354 0.307497 0.380363 
1750 0.748677 0.150892 0.0497398 0.411204 -4.3644 0.422696 0.0588934 -0.43079 
912 0.800318 0.125817 0.0231519 0.173198 -4.37691 0.0322406 0.623497 0.233887 
951 0.773187 0.152295 0.0243505 0.875824 -4.38846 0.485508 -1.02852 -0.588728 
952 0.800903 0.175427 0.0235902 0.323264 -4.40856 -0.395805 0.0822901 -0.162764 
1711 0.774936 0.126521 0.0479798 0.311456 -4.35986 -0.0548343 -0.702238 0.246299 
1751 0.775235 0.175398 0.0475928 0.19957 -4.3449 -0.115092 -0.136533 0.735971 
1752 0.799948 0.149833 0.0471545 0.44469 -4.326 0.214702 0.496191 0.786644 
914 0.849298 0.124382 0.0226492 0.461286 -4.37213 0.798214 0.877768 0.522061 
953 0.825824 0.151626 0.0237188 0.269953 -4.36696 -0.205222 -0.856935 0.0366288 
954 0.849211 0.175295 0.0239359 0.374242 -4.3624 0.676043 0.468743 -0.304157 
955 0.874224 0.151445 0.0220605 0.342087 -4.36037 -0.201018 -0.486979 0.17484 
1713 0.825412 0.126619 0.0489725 0.302038 -4.37958 -0.013268 -0.293209 -0.411402 
1715 0.873401 0.126501 0.0485575 0.402436 -4.34108 0.411676 -0.530372 -0.356943 
1753 0.824231 0.17613 0.0483776 0.271646 -4.33774 0.496063 -0.74023 0.339227 
1754 0.850988 0.151252 0.050132 0.578206 -4.32115 -0.750046 -0.102101 -0.897016 
1755 0.874944 0.175712 0.0477064 0.230072 -4.35594 0.120887 -0.265974 0.393568 
916 0.899055 0.126432 0.0233863 0.292434 -4.39549 -0.183687 -0.42792 -0.528439 
956 0.89933 0.176032 0.0232246 0.168592 -4.39821 -0.469218 -0.274263 -0.452404 
957 0.923721 0.150432 0.0225713 0.0905732 -4.41075 -0.0102585 -0.322803 0.0567945 
1717 0.924051 0.125834 0.0488402 0.147033 -4.33745 0.486623 -0.249476 -0.408646 
1756 0.898988 0.14975 0.0485013 0.204467 -4.37267 -0.121145 0.473924 -0.215573 
1757 0.923322 0.175248 0.0473057 0.145856 -4.38825 0.473652 -0.124846 0.314354 
880 0.998843 0.124745 0.0232743 0.349259 -4.4035 -0.440675 0.350329 0.122331 
1720 0.998649 0.151645 0.0470564 0.402461 -4.33607 -0.168946 -0.250784 0.651427 
918 0.949426 0.125148 0.0203936 0.562506 -4.37638 -0.341338 0.196725 0.984029 
958 0.948769 0.17459 0.0214132 0.270528 -4.38299 -0.132924 0.433081 0.848223 
959 0.973667 0.150239 0.0222763 0.135516 -4.41295 0.347964 0.0335942 0.221584 
1719 0.973964 0.125837 0.0492797 0.274993 -4.35541 0.171882 -0.0475543 -0.659583 
1758 0.948841 0.150343 0.0475731 0.102461 -4.37621 0.13377 -0.262429 0.128715 
1759 0.972653 0.175743 0.0468503 0.325879 -4.35022 0.6087 -0.271955 0.0391448 
961 0.0236596 0.199895 0.0219406 0.422636 -4.39635 0.742022 0.2201 0.337364 
962 0.0496945 0.225594 0.0225162 0.154987 -4.40509 0.00241805 -0.382899 0.0368525 
1761 0.0243132 0.224395 0.047457 0.170421 -4.35789 0.184612 0.14515 0.221553 
1762 0.0497936 0.200444 0.0484145 0.126756 -4.3446 -0.159013 0.0129577 -0.0288448 
963 0.075051 0.199448 0.0238501 0.143507 -4.37919 -0.147763 0.55069 -0.151085 
964 0.0988862 0.224247 0.0245548 0.297817 -4.40949 0.228035 -0.000359977 -0.649841 
1763 0.0737842 0.223826 0.0494106 0.439789 -4.35293 0.271739 0.614601 -0.392102 
1764 0.0998712 0.199486 0.0492121 0.0830793 -4.38683 -0.379989 0.100358 -0.114359 
166 0.148858 0.199369 0.000997566 15.13 -3.79436 -0.0183352 -0.302201 -0.286418 
965 0.123213 0.199386 0.0239664 0.324773 -4.3731 0.585482 0.690824 0.122189 
966 0.149871 0.224973 0.024352 0.156783 -4.3682 -0.771666 0.120454 -0.399025 
967 0.174805 0.201705 0.0238968 0.617138 -4.354 -0.380334 -1.13424 0.101489 
1765 0.124407 0.225163 0.0488361 0.0418712 -4.3418 0.497444 -0.431723 -0.195111 
1766 0.149968 0.20139 0.0488682 0.296729 -4.37338 -0.229974 -0.587614 -0.254849 
1767 0.173761 0.225852 0.0479075 0.327637 -4.30715 0.57292 -0.109068 1.15661 
168 0.199298 0.199162 0.000307242 15.5823 -3.7795 0.119657 0.772539 -0.64677 
968 0.200189 0.224781 0.0253059 0.654648 -4.35813 -0.277076 0.102718 -1.17319 
969 0.223896 0.199115 0.0243507 0.351019 -4.40029 0.614747 0.530609 -0.278352 
1768 0.197829 0.200241 0.0479943 0.525514 -4.34697 0.616713 -0.440589 0.780841 
1769 0.22417 0.225592 0.0478454 0.200237 -4.32889 0.0141591 0.0949798 0.207538 
970 0.250266 0.22597 0.0227365 0.381384 -4.39518 -0.480363 -0.625524 0.0430011 
971 0.273442 0.198755 0.0236332 0.502951 -4.35142 0.359885 1.03513 0.017782 
1770 0.248008 0.201848 0.048761 0.673363 -4.33335 0.828514 -0.533487 -0.210668 
1771 0.275138 0.225216 0.0486883 0.299577 -4.36062 -0.431047 -0.601492 0.0207152 
972 0.298957 0.223591 0.0239644 0.430382 -4.38911 0.0678424 0.0691324 0.0745908 
973 0.325718 0.200626 0.0227756 0.348602 -4.37331 -0.439477 0.0543554 0.66527 
974 0.350129 0.226893 0.0224168 0.385259 -4.41368 -0.265548 -0.230402 0.589524 
1772 0.299212 0.198941 0.0487783 0.265297 -4.34728 0.169367 0.768957 -0.282353 
1773 0.323672 0.225539 0.0479889 0.337868 -4.37608 0.381973 -0.232332 0.358232 
1774 0.350008 0.201109 0.0483385 0.0940623 -4.35146 -0.417119 -0.404981 -0.462775 
975 0.375353 0.200903 0.0231434 0.339776 -4.40446 -0.765697 -0.048555 -0.336328 
976 0.399687 0.225013 0.023221 0.100442 -4.3956 -0.164074 -0.0796446 -0.575762 
1775 0.373743 0.225786 0.049101 0.376015 -4.29378 0.70591 -0.139558 -1.32615 
1776 0.397572 0.200094 0.0487374 0.318621 -4.34117 0.807662 -0.07616 0.0133895 
977 0.424275 0.198905 0.0240904 0.229669 -4.38577 -0.700111 0.129638 -0.451212 
978 0.448814 0.223069 0.0244448 0.448082 -4.38722 0.00558387 0.791757 -0.348988 
1777 0.422753 0.224003 0.0485356 0.305465 -4.3382 0.901863 -0.137394 0.0946892 
1778 0.449813 0.199395 0.0479059 0.230272 -4.34105 -0.403952 0.119342 0.738827 
178 0.449216 0.198794 0.000273041 14.8414 -3.78983 0.138793 0.333807 -0.61389 
979 0.475363 0.199749 0.023983 0.204198 -4.41938 0.119206 0.116394 -0.0867322 
980 0.501146 0.225911 0.0232469 0.25551 -4.40983 -0.390048 -0.454808 0.50161 
981 0.525107 0.2003 0.0243301 0.12308 -4.40843 -0.0569977 -0.511707 -0.0817514 
1779 0.475274 0.224765 0.047985 0.155705 -4.36854 -0.165117 -0.121363 0.424501 
1780 0.500691 0.199741 0.050213 0.386778 -4.34165 -0.345912 0.136997 -0.985741 
1781 0.526761 0.225469 0.0492468 0.360387 -4.3436 -0.731856 -0.17573 -0.165539 
982 0.549033 0.224394 0.0230524 0.626328 -4.34161 0.292379 0.463574 0.86203 
983 0.57504 0.199548 0.0244384 0.252082 -4.39319 0.37644 0.149083 -0.17737 
1782 0.550732 0.199497 0.0493775 0.168378 -4.36398 -0.234174 0.398154 -0.0622587 
1783 0.576159 0.225722 0.0484608 0.221134 -4.37945 -0.4304 -0.572303 -0.437944 
183 0.573287 0.22554 0.00120889 13.1544 -3.76625 0.716711 0.345034 -0.533039 
984 0.599985 0.226215 0.0231098 0.219224 -4.39591 0.248403 -0.104914 0.200221 
985 0.624224 0.201777 0.023063 0.413525 -4.38473 0.271102 -0.602605 0.155194 