ITEM: TIMESTEP
2500
ITEM: NUMBER OF ATOMS
28567
ITEM: BOX BOUNDS pp pp pp
-7.5899859033391692e-01 7.1158998590334278e+01
-4.3021065235221556e-01 7.0830210652352221e+01
4.4173342913967080e+00 6.5982665708603605e+01
ITEM: ATOMS id xs ys zs c_csym c_peratom fx fy fz 
1601 0.0299908 0.0256256 0.00523455 0.569169 -4.35195 -0.406493 0.0201413 -0.611445 
1642 0.0539947 0.0486075 0.00172576 0.56213 -4.34619 0.726804 0.429083 0.725854 
1602 0.0538902 0.00126008 0.00408713 0.241066 -4.36053 0.298786 -0.268972 -0.0146336 
2402 0.0557064 0.0243097 0.0315185 0.236906 -4.33798 -0.418686 0.296684 0.268008 
2441 0.0316636 0.0498057 0.0318331 0.220373 -4.34201 -0.246434 -0.237117 0.194985 
3201 0.0307422 0.0255755 0.0604612 0.222483 -4.35401 -0.342633 0.0229994 -0.573595 
3242 0.0562609 0.0501071 0.0589654 0.245402 -4.33062 0.000729002 -0.528974 -0.111413 
1603 0.0794801 0.0234137 0.00394527 0.457013 -4.32469 -0.35835 0.63132 -0.66228 
1644 0.104214 0.048933 0.0020446 0.222511 -4.32038 0.258909 0.0632694 0.228738 
2404 0.10426 0.025636 0.0298501 0.474955 -4.36807 0.193233 -0.587522 0.500635 
2443 0.0791745 0.0488273 0.0300485 0.293189 -4.34306 0.15816 0.466776 -0.137473 
3203 0.0799027 0.0248964 0.0584261 0.217258 -4.40524 0.188342 -0.174396 0.147072 
3244 0.103672 0.0503571 0.059822 0.195628 -4.32836 0.273926 -0.531604 -0.367031 
1605 0.131288 0.0234111 0.00432967 0.772697 -4.32143 -0.615433 0.412429 -0.403652 
1607 0.180062 0.0250298 0.00254206 0.33892 -4.32392 -0.823071 0.0772772 -0.473161 
1646 0.153527 0.0507184 0.00146071 0.489461 -4.35379 0.489894 -0.71557 0.463437 
2406 0.155474 0.023259 0.030978 0.5547 -4.29249 -0.626628 0.810073 0.0153426 
2445 0.12945 0.0492982 0.0306147 0.234493 -4.38214 0.223247 -0.0690722 0.233636 
2447 0.177466 0.0488527 0.0296912 0.506875 -4.37224 0.131189 0.756447 0.672655 
3205 0.127282 0.0247583 0.0593766 0.455495 -4.33219 1.02775 0.543861 -0.498691 
3207 0.179335 0.0259479 0.0597101 0.198283 -4.34683 -0.179752 -0.28403 -0.449774 
3246 0.153918 0.0486954 0.0592284 0.362525 -4.33358 -0.933205 0.331001 -0.223692 
1609 0.22751 0.0247763 0.00255971 0.190342 -4.35657 -0.252158 0.00600823 -0.469953 
1648 0.201912 0.0509318 0.0038805 0.484543 -4.34072 0.715553 0.200652 -0.346578 
2408 0.204105 0.0252367 0.0288999 0.525333 -4.32923 -0.20706 0.348715 0.948165 
2449 0.227098 0.0499025 0.0306164 0.117941 -4.34245 0.201441 0.463115 0.0567038 
3209 0.228667 0.0257931 0.0580749 0.271022 -4.34986 -0.4853 -0.148564 0.338577 
3248 0.202983 0.0507874 0.0584412 0.30625 -4.40511 -0.188974 -0.138865 0.0298611 
1611 0.27563 0.0242007 0.00317782 0.554268 -4.35663 -0.233471 0.146623 -0.734061 
1650 0.250408 0.0505135 0.00234135 0.228069 -4.35094 0.222295 -0.240308 0.170411 
2410 0.251432 0.0241478 0.0302737 0.113962 -4.35497 0.109471 0.38097 -0.120663 
2451 0.276226 0.0494913 0.0297032 0.202816 -4.35628 -0.27541 0.124878 0.00164022 
2411 0.27546 0.000164529 0.0305945 0.151727 -4.35841 0.43628 -0.487678 0.165618 
3211 0.275086 0.0254465 0.0575079 0.497317 -4.35334 0.596593 -0.613606 0.677084 
3250 0.251825 0.0486161 0.0596084 0.204777 -4.29243 0.0999308 0.834406 -0.385113 
1613 0.323253 0.0245447 0.000450288 0.297113 -4.34663 0.155279 0.515109 0.137698 
1652 0.298884 0.0499515 0.000692205 0.388564 -4.28456 0.118262 -0.675133 0.600877 
1654 0.350352 0.0488767 0.00127346 1.78048 -4.23617 -0.408602 0.230547 0.127233 
1612 0.299397 -0.000609149 0.00104541 0.154676 -4.34224 -0.178347 0.54004 0.25788 
2412 0.300135 0.0241268 0.0319594 0.599298 -4.32841 0.726765 0.403099 -0.634312 
2414 0.349315 0.0252862 0.0285444 0.182712 -4.33916 0.00874017 0.129135 0.477149 
2453 0.325422 0.0515032 0.0299294 0.562373 -4.32181 -0.178564 -1.19524 -0.00431296 
3213 0.326448 0.0247189 0.0604118 0.639949 -4.30714 -0.412979 0.465615 -1.05266 
3252 0.300941 0.0507823 0.0572314 0.436232 -4.36826 -0.127178 -0.270753 0.410724 
3254 0.350501 0.0505833 0.0589075 0.175933 -4.39993 -0.11183 -0.379292 -0.460821 
1615 0.374704 0.0262913 -0.00216597 1.29574 -4.36891 -0.0548562 -0.308945 0.662982 
1656 0.399109 0.0505922 0.00112251 0.485632 -4.29182 0.471924 0.523753 0.368815 
2416 0.397705 0.0245027 0.0293711 0.410426 -4.33764 0.290231 0.37691 -0.642134 
2455 0.374 0.0506892 0.0292332 0.0842098 -4.37448 0.134283 0.22748 -0.31358 
1616 0.397459 0.999653 1.33425e-05 0.349412 -4.34984 0.307638 -0.0144487 0.490267 
3215 0.375166 0.024998 0.0561033 0.479603 -4.3317 -0.652675 0.342285 1.10428 
3256 0.397101 0.052253 0.0570508 0.622817 -4.3343 0.783185 -0.575206 0.0696312 
1617 0.422833 0.0263292 -0.000260753 0.658278 -4.28696 0.27958 -0.814182 0.976059 
1658 0.446218 0.050471 -0.00122667 0.796467 -4.23478 0.335787 0.41341 0.490585 
2418 0.447342 0.0254499 0.0288392 0.137697 -4.36484 -0.513381 0.0987051 0.0593052 
2457 0.422511 0.0509873 0.0290842 0.135985 -4.35444 0.0308899 0.157492 -0.178788 
3217 0.421691 0.026375 0.0568653 0.374158 -4.33893 0.580505 0.142751 0.0605303 
3258 0.446849 0.0515148 0.0569476 0.146186 -4.36113 -0.147771 -0.227077 -0.182386 
1619 0.470747 0.0232136 1.00249 0.4789 -4.34476 0.459402 0.168802 -0.464429 
1621 0.521726 0.0231937 0.00255794 0.466588 -4.31736 -0.371824 0.388628 -0.682806 
1660 0.49508 0.0484824 0.00240917 0.822262 -4.19204 0.884336 0.69945 -0.716716 
2420 0.496605 0.0253132 0.0285912 0.381731 -4.33556 -0.272114 -0.410418 0.697128 
2459 0.470944 0.0505672 0.0273335 0.342036 -4.35918 -0.195194 0.148013 0.317265 
2461 0.519463 0.0509343 0.0296077 0.504499 -4.3407 0.55397 -0.601981 0.000813552 
3219 0.472359 0.0254345 0.0569839 0.249509 -4.38176 -0.0171137 0.32795 -0.0193019 
3221 0.520982 0.0261899 0.0585618 0.15781 -4.38655 -0.135386 -0.258473 -0.245939 
3260 0.495105 0.0510248 0.0585538 0.320952 -4.38222 0.478464 -0.494349 -0.276251 
1623 0.569278 0.0241279 0.0038005 0.357279 -4.32331 0.489563 -0.733539 -0.467499 
1662 0.545935 0.048267 0.00426538 0.707666 -4.2973 -0.269293 0.249775 -0.872549 
2422 0.545321 0.0244516 0.0299222 0.217632 -4.29594 -0.174229 -0.0741216 1.05917 
2463 0.570873 0.0484984 0.0316324 0.20034 -4.34671 -0.173005 -0.297082 0.575576 
3223 0.568745 0.0249488 0.0611857 0.67281 -4.2814 0.51881 -0.130643 -1.30864 
3262 0.544288 0.0520694 0.057671 1.14283 -4.33457 0.334771 -1.40108 0.169615 
3222 0.545296 1.00031 0.0588787 0.0810169 -4.35303 -0.149522 -0.171796 -0.0389761 
1625 0.618181 0.021809 0.00197386 0.846023 -4.36458 0.694338 0.785959 0.511562 
1664 0.593662 0.0476966 0.00344965 0.16049 -4.30887 0.853937 -0.272111 -0.15505 
2424 0.596091 0.0234927 0.0345894 0.861061 -4.32892 -0.694394 0.144642 -0.9648 
2465 0.620721 0.0475001 0.0324196 0.269668 -4.34968 -0.507975 0.0209196 -0.575306 
3225 0.620838 0.0238492 0.060545 0.117419 -4.31421 0.259372 0.15014 0.677521 
1627 0.669484 0.0213298 0.00412237 0.0845183 -4.33594 0.0262356 -0.279579 0.222921 
1666 0.644659 0.0470806 0.00177712 0.753728 -4.34068 -0.82858 0.283422 0.947069 
1668 0.693831 0.0453201 0.00533469 0.343295 -4.30794 -0.91285 0.290047 -0.154242 
2426 0.644348 0.0221657 0.0328502 0.164098 -4.36554 0.154272 0.185551 -0.587527 
2428 0.694083 0.0215347 0.0318428 0.292311 -4.28641 -0.169036 0.337136 0.709393 
2467 0.66826 0.0467738 0.0321839 0.193363 -4.35439 -0.0396639 -0.215425 -0.43483 
3227 0.669665 0.0222357 0.0611003 0.32775 -4.36238 0.218227 0.330056 -0.306692 
3266 0.646059 0.0485778 0.0600751 0.334555 -4.2982 -0.743342 -0.523519 0.529009 
3226 0.645898 -0.00356012 0.0607486 0.794946 -4.28712 -0.48603 1.41585 -0.224059 
1629 0.718565 0.0216277 0.00680637 0.336459 -4.2968 0.269751 -0.178877 0.164464 
1670 0.743437 0.0460187 0.00859169 4.44005 -4.1107 -0.805406 0.141194 0.622326 
2430 0.746659 0.0218135 0.0321596 0.655542 -4.28113 0.240033 0.0697884 0.321802 
2469 0.717982 0.0462332 0.0333765 4.16225 -4.18579 0.524858 -0.104959 0.0267388 
3229 0.722773 0.0234044 0.0597014 0.604548 -4.27335 -0.658483 0.37569 -0.413592 
3270 0.749009 0.0513076 0.0540558 1.16096 -4.37681 0.0434955 -0.146075 -0.255529 
1631 0.771571 0.019972 0.00311582 4.24525 -4.36621 -0.0141074 0.971197 -0.501255 
1672 0.798563 0.0490501 -0.0020895 4.27713 -4.25753 0.987727 0.260252 1.0847 
2432 0.79972 0.0252987 0.02703 0.787126 -4.32269 0.206337 -0.202496 0.219986 
2471 0.774652 0.049091 0.027168 3.2656 -4.3691 -0.132832 0.266903 -0.554424 
1633 0.826058 0.0258573 -0.00136092 0.929861 -4.325 -0.10094 0.0370283 0.442428 
2473 0.825815 0.0496252 0.027592 0.233112 -4.32737 -0.0704565 -0.121196 0.167971 
1632 0.798415 0.998596 0.00367646 0.278938 -4.27667 -0.030743 -0.157029 0.0424602 
2433 0.825312 0.00219542 0.0290368 0.841287 -4.3124 0.179076 -0.23754 -0.000167719 
3231 0.774896 0.0263321 0.0566422 0.600554 -4.29733 -0.435706 -0.248217 0.102665 
3232 0.800281 0.00175338 0.0575797 0.709228 -4.30037 0.1823 -0.313922 -0.16302 
3272 0.801529 0.0481953 0.05536 0.743641 -4.33768 -0.324638 0.738253 0.0271784 
1635 0.877636 0.0274869 0.00360545 0.478943 -4.30325 0.922856 0.0562839 -0.189758 
1674 0.851376 0.0509963 0.000917869 0.512674 -4.32523 0.618688 0.00371623 0.596196 
2434 0.850942 0.0256972 0.0284576 0.32269 -4.33047 0.256907 0.323422 0.321254 
2475 0.877853 0.050884 0.0301832 0.236038 -4.32817 -0.241579 -0.213211 0.0472638 
1634 0.853099 0.00280758 0.0027855 0.368014 -4.22202 -0.191645 -0.400789 -0.578874 
3235 0.877478 0.0249243 0.0566837 0.179736 -4.36558 -0.474819 0.65197 0.310011 
3274 0.850737 0.0492484 0.0561476 0.447213 -4.352 0.43254 0.442013 0.414269 
3234 0.853394 -0.000167921 0.0559205 0.367678 -4.36469 -0.477013 0.613051 0.300577 
1637 0.933044 0.0260644 0.00500471 0.866563 -4.25074 -1.42873 0.391126 -0.950914 
1676 0.906189 0.0516652 0.00427854 0.466923 -4.29269 -0.250947 -0.637598 -0.309838 
1636 0.905207 0.00338179 0.00206444 0.391005 -4.3022 -0.238361 -0.596689 0.379179 
2436 0.904678 0.0264095 0.029126 0.284503 -4.3666 -0.0696028 0.278614 0.603693 
2477 0.930286 0.0511044 0.0310859 0.24704 -4.35464 -0.0445087 0.0635776 0.459327 
3237 0.929284 0.0256995 0.0573959 0.16244 -4.37447 -0.130635 0.218888 0.317674 
3276 0.901548 0.0505124 0.0585087 0.504893 -4.33723 1.02381 -0.206391 -0.223557 
3236 0.903562 0.00209736 0.0573066 0.166934 -4.34183 0.24548 -0.628863 -0.137713 
1640 0.00655909 0.0518712 0.00477456 0.927711 -4.30964 -0.467179 -0.974299 -0.374042 
1639 0.982826 0.0257847 0.0044371 0.648002 -4.35553 -0.921767 -0.173681 -0.0264074 
1678 0.956026 0.0499763 0.00495193 0.200631 -4.30841 0.293844 0.538228 0.155625 
2400 0.0053725 0.0253515 0.0321303 0.135143 -4.36425 -0.0562464 0.21564 0.484449 
2438 0.954737 0.0249401 0.0316312 0.238881 -4.29905 1.04445 0.273051 0.463989 
2479 0.97953 0.0500902 0.0324496 0.251025 -4.36861 0.46187 -0.0569816 -0.050711 
1638 0.957468 0.00167732 0.00339973 0.40712 -4.35169 -0.232866 -0.0699507 0.138797 
3240 0.0048663 0.050659 0.0600916 0.261382 -4.37178 0.00630915 -0.433066 -0.0858949 
3239 0.979757 0.02379 0.0596921 0.181732 -4.34038 0.0279977 0.776513 -0.0678665 
3278 0.955215 0.049974 0.0599708 0.130542 -4.37756 0.0175298 0.11321 -0.0601356 
1641 0.0314685 0.0736475 0.00372379 0.224294 -4.34626 -0.142791 0.372933 0.091806 
1682 0.0571089 0.0985511 0.00311503 0.654115 -4.32221 -1.18089 0.692095 -0.320245 
2442 0.056404 0.0754716 0.0313308 0.390744 -4.34482 0.0991772 -0.722786 -0.34058 
2481 0.0317357 0.0997399 0.031679 0.12928 -4.39335 -0.221836 -0.309888 0.00250319 
2440 0.00574488 0.0739843 0.0319222 0.111017 -4.31128 0.189803 0.410042 0.01911 
3241 0.0316797 0.0730831 0.0583853 0.494435 -4.29231 -0.803171 0.849742 -0.277101 
3282 0.0560371 0.0991778 0.05808 0.225542 -4.35933 0.016313 0.197063 0.389469 
3280 0.00554327 0.0979797 0.0588033 0.415158 -4.35354 0.0241804 0.718002 0.0392188 
1643 0.0802472 0.0744385 0.00214163 0.19145 -4.33325 -0.0163293 -0.0408952 0.468463 
1684 0.104542 0.101217 0.000356381 0.593917 -4.36046 -0.00334674 -0.239527 0.554724 
2444 0.105196 0.0728461 0.0302817 0.62113 -4.33145 -0.602043 1.00422 -0.0417237 
2483 0.0802732 0.101604 0.0290999 0.780067 -4.30246 0.71649 -0.976038 0.815978 
3243 0.0813495 0.0730351 0.0588666 0.839869 -4.30516 -0.930692 1.13596 -0.1916 
3284 0.104225 0.0995876 0.0604305 0.31649 -4.34383 -0.419599 -0.0349181 -0.96272 
1645 0.129464 0.0750873 0.00343046 0.309819 -4.36634 -0.125934 0.175465 -0.866211 
1647 0.176818 0.0754726 0.00292269 0.301495 -4.33886 0.446823 0.0792616 0.177608 
1686 0.154359 0.100618 0.00244877 0.175903 -4.35162 -0.417215 -0.197923 0.173394 
2446 0.153045 0.0749909 0.0313483 0.178886 -4.35263 -0.0369692 -0.330993 0.154487 
2485 0.128283 0.0987528 0.0304801 0.30309 -4.34954 0.141894 0.852352 0.501233 
3245 0.128239 0.0746985 0.060676 0.239051 -4.40344 0.24055 -0.366178 -0.468018 
3247 0.176124 0.0735151 0.0611663 0.672339 -4.3257 0.93257 -0.183169 -0.528493 
3286 0.154427 0.0982256 0.0612469 0.545058 -4.3152 -1.16851 0.610634 -0.605869 
2487 0.177419 0.0981927 0.032968 0.407458 -4.33312 0.0414196 0.671545 -0.496068 
1649 0.226366 0.0754424 0.00246234 0.182597 -4.31495 0.129101 -0.198839 0.473404 
1688 0.202335 0.0984092 0.00380525 0.454833 -4.34286 -0.382954 0.740417 -0.589383 
2448 0.201882 0.0757345 0.0318198 0.27511 -4.31921 0.201052 -0.814383 0.0159383 
2489 0.226564 0.10046 0.0320343 0.367471 -4.3309 0.394517 -0.898128 -0.752712 
3249 0.228553 0.0741478 0.060592 0.375684 -4.38989 -0.250682 0.291344 -0.293421 
3288 0.203142 0.0974281 0.0603928 0.439978 -4.37412 -0.486446 0.443659 0.146473 
1651 0.276406 0.0749044 1.00156 0.541654 -4.34015 -0.359167 0.324426 -0.178506 
1690 0.252201 0.0988399 1.00442 0.739056 -4.3171 -0.804632 0.615343 -0.400557 
2450 0.252202 0.0746346 0.0322212 0.340215 -4.30748 -0.691291 -0.187245 -1.01636 
2491 0.275503 0.100787 0.0313552 0.883317 -4.271 0.879255 -0.779256 -0.299672 
3251 0.274746 0.0736582 0.0580459 0.580806 -4.31375 0.994532 0.21775 0.548016 
3290 0.25161 0.0997158 0.0582176 0.447627 -4.34816 0.449395 -0.20139 0.905436 
1653 0.325993 0.0721021 0.999958 1.47132 -4.29352 -0.187452 0.413011 -0.28137 
1692 0.302973 0.0991769 0.995828 4.59724 -4.42866 -0.249448 -0.495519 -0.142854 
1694 0.348 0.0981071 0.000293313 4.78951 -4.23205 -0.633816 0.602227 -0.0756239 
2452 0.300374 0.0753371 0.0281752 0.595367 -4.32398 -0.334782 -0.0139413 0.286344 
2454 0.349913 0.0758911 0.0301183 0.36137 -4.33587 -0.371314 -0.688693 -0.0657599 
2493 0.32288 0.0988884 0.0286798 0.770408 -4.28516 0.932539 -0.281628 0.0132648 
3253 0.324739 0.0751247 0.057968 0.153101 -4.35538 0.00443092 0.094382 0.384718 
3292 0.299171 0.0975915 0.0601525 0.735812 -4.36858 0.115506 0.434185 -0.384367 
3294 0.348209 0.0994514 0.057067 0.25357 -4.3163 0.316691 -0.064182 0.751968 
1655 0.373135 0.076848 0.00108824 2.63712 -4.23499 0.550052 -0.425285 0.138309 
1696 0.398559 0.102651 -0.000853516 3.5411 -4.17583 -0.940726 0.207826 -0.0518909 
2456 0.398975 0.0777603 0.0282623 0.577704 -4.37109 -0.579512 -0.188811 0.0623183 
2495 0.37234 0.100592 0.0295823 0.209674 -4.30118 0.939738 0.094116 0.0103296 
3255 0.374203 0.0759389 0.0590855 0.212299 -4.36275 0.137385 0.303017 -0.5112 
3296 0.397939 0.101345 0.0600473 0.418456 -4.35818 -0.502965 -0.414963 -0.833745 
1657 0.42306 0.0779789 -0.000362799 1.17782 -4.20867 -0.054349 -0.0687578 0.443774 
1698 0.446989 0.101429 0.997947 1.38716 -4.20977 -0.730355 0.987409 0.0852728 
2458 0.447372 0.0762963 0.026654 0.409436 -4.29849 -0.73067 -0.181098 0.735877 
2497 0.421985 0.103213 0.0313905 1.11351 -4.28553 0.705501 -0.799566 -1.07868 
3257 0.421218 0.0760927 0.057717 0.379549 -4.35528 0.841131 0.10006 -0.0871509 
3298 0.446566 0.1002 0.0576136 0.113111 -4.35285 0.252962 -0.0963274 -0.0762612 
1659 0.469455 0.0773312 0.995544 4.82536 -4.32933 0.666315 -0.688373 -0.188764 
1661 0.522436 0.0755887 0.0019416 0.48852 -4.31736 -0.423481 -0.403542 -0.0544732 
1700 0.49515 0.101068 0.999215 0.823619 -4.34197 0.156675 -0.0913496 -0.536078 
2460 0.495857 0.0742839 0.0285511 0.424754 -4.32208 -0.5438 0.810658 -0.572433 
2499 0.470045 0.100147 0.0270057 0.353717 -4.3233 0.613108 0.250369 0.603058 
2501 0.520433 0.100493 0.0299615 0.223089 -4.37157 0.13774 -0.374216 -0.402235 
3259 0.470903 0.0746947 0.0563905 0.193118 -4.33396 0.161699 0.408538 0.21262 
3261 0.519836 0.0756495 0.0576614 0.291166 -4.36411 0.262037 -0.263007 0.0532907 
3300 0.495622 0.0986259 0.0570269 0.194208 -4.35683 -0.341968 0.426802 0.202452 
1663 0.570839 0.071228 0.00339714 0.771637 -4.32782 -0.137768 1.05288 -0.204772 
1702 0.547317 0.100233 0.00251693 0.403234 -4.24649 -0.49648 -0.588134 0.731832 
2462 0.546182 0.0739882 0.0303611 0.269172 -4.32873 -0.254283 0.515117 -0.145681 
2503 0.569828 0.0980102 0.0317337 0.266209 -4.32482 0.282727 0.014852 0.135038 
3302 0.54677 0.0978102 0.0593817 0.451803 -4.34979 -0.651105 0.550821 -0.43632 
1665 0.619272 0.0730934 0.00282688 0.369938 -4.36161 -0.331757 -0.495847 0.0645305 
1704 0.594093 0.0977865 0.00482701 0.326574 -4.36339 0.223342 -0.0668846 -0.220509 
2464 0.595673 0.0729454 0.033145 0.325367 -4.313 0.0115211 -0.429606 -0.828785 
2505 0.618297 0.0972187 0.0321962 0.593159 -4.30351 0.616593 0.911434 0.341967 
1706 0.643773 0.0982624 0.00651076 0.256805 -4.32872 -0.496303 0.567737 0.477788 
2466 0.643036 0.0722522 0.0332852 0.301569 -4.35256 0.17369 0.165286 -0.681779 
3304 0.594605 0.0988438 0.0585368 0.509281 -4.35063 -0.0911752 0.124502 0.708459 
3306 0.643283 0.0970334 0.0620639 0.723711 -4.29827 -0.355583 0.929279 -0.426653 
1667 0.667413 0.0734186 0.00495578 0.416961 -4.31588 0.0200155 -0.489251 0.504308 
1708 0.6906 0.100996 0.0101067 4.16044 -4.31424 0.4551 -0.240837 0.696182 
2468 0.691668 0.0702629 0.0316292 2.42713 -4.20355 0.249783 0.827851 -0.0634448 
2507 0.66677 0.0983404 0.0358294 1.03404 -4.29939 0.140399 0.397971 -0.371931 
3267 0.667975 0.0728247 0.0595038 0.800316 -4.27871 0.894062 -0.0979931 0.357898 
1669 0.716501 0.0703538 0.00770783 4.86575 -4.0863 0.188385 0.0401032 0.506915 
1710 0.755494 0.101394 0.99149 4.58738 -4.22931 0.404618 -0.324525 0.229878 
2470 0.75095 0.0774245 0.0228281 5.84408 -4.35709 -0.131989 -0.433459 -0.00763207 
2509 0.723337 0.0985873 0.0244419 6.61792 -4.14531 0.282301 -0.145106 -0.0113826 
1671 0.779141 0.0763504 0.998227 3.12667 -4.34722 -0.433077 0.162076 -0.560691 
1712 0.805775 0.101407 -0.000437171 0.270871 -4.29049 -0.265588 -0.184348 0.35903 
2472 0.801347 0.0750397 0.0264454 0.219924 -4.31124 0.309623 -0.261072 0.141055 
2511 0.778088 0.100951 0.0243755 0.56783 -4.29823 0.0516208 -0.0822495 0.203353 
1673 0.827517 0.0742108 0.00123871 0.451729 -4.31732 -0.162765 0.368616 -0.144836 
2513 0.827932 0.100004 0.0285756 0.126109 -4.36479 0.326827 -0.0703889 -0.131411 
3271 0.776695 0.0756397 0.0521447 0.767674 -4.29265 0.256481 -0.570739 0.721977 
3273 0.824933 0.074931 0.0550405 0.417453 -4.36261 0.584639 -0.0544711 0.299213 
1675 0.879755 0.0735826 0.00156007 0.565375 -4.32362 -0.181457 0.630985 0.476747 
1714 0.854899 0.0992069 0.00208514 0.141688 -4.37202 -0.461846 0.0986405 0.027477 
2474 0.853375 0.0754881 0.0298102 0.282107 -4.37242 -0.223104 -0.46461 -0.0803735 
2515 0.87887 0.100193 0.0303913 0.140937 -4.39271 0.222363 -0.578073 -0.313571 
3275 0.87795 0.0743953 0.0599153 0.616723 -4.30109 -0.327373 0.00928841 -0.913328 
3314 0.852847 0.0999798 0.0562379 0.0939946 -4.31755 -0.202804 -0.372712 0.268902 
1677 0.930617 0.0761411 0.00429124 0.384017 -4.32947 0.388139 -0.55321 0.0308697 
1716 0.904838 0.098727 0.00315073 0.200245 -4.38923 0.0109564 0.108629 -0.260016 
2476 0.902982 0.0749567 0.0314356 0.30161 -4.33761 0.265829 -0.113269 0.0628424 
2517 0.927653 0.0984387 0.0322552 1.04353 -4.29554 1.21553 0.118124 -0.206958 
3277 0.930176 0.0743679 0.059282 0.307641 -4.31834 -0.55479 -0.10371 -0.278992 
3316 0.902868 0.099499 0.0579255 0.292602 -4.31575 0.571364 -0.462843 0.515189 
1680 0.00760571 0.0999958 0.00494686 0.540218 -4.32354 -1.06702 -0.63242 -0.326667 
1679 0.979967 0.0754953 0.00491305 0.505904 -4.28415 0.819225 -0.410322 -0.977127 
1718 0.95533 0.100401 0.00248985 0.527553 -4.29541 0.423991 -0.406193 0.408719 
2478 0.955894 0.0760926 0.0312862 0.421556 -4.33355 -0.516733 -0.45371 0.171008 
2519 0.981062 0.098411 0.0305257 0.36211 -4.297 0.0822288 1.1766 0.474085 
3279 0.980682 0.0750881 0.0598832 0.130161 -4.37265 -0.397237 -0.207503 0.298197 
3318 0.955687 0.0982706 0.0596501 0.233274 -4.3371 -0.357871 0.474715 -0.208258 
1681 0.0313144 0.125428 0.00523699 0.53847 -4.32817 0.549657 -0.278467 -0.702696 
1721 0.0319733 0.173904 0.00139474 0.385634 -4.35748 -0.565726 0.138606 0.382876 
1722 0.0568975 0.151573 0.00145527 1.05354 -4.34431 -0.882876 -1.01745 0.0731213 
2482 0.055511 0.125319 0.0311482 0.199614 -4.3835 0.111977 0.119711 -0.110483 
2521 0.0301765 0.149883 0.0326862 0.350103 -4.33037 0.315992 -0.207736 -0.606164 
2522 0.0546318 0.172651 0.0322411 0.488736 -4.33551 0.294498 0.172805 0.16446 
3281 0.0298195 0.124306 0.0602345 0.16249 -4.37486 0.155245 -0.0134121 -0.312497 
3321 0.028841 0.173409 0.0593709 0.289213 -4.32822 0.477996 0.351543 0.0448934 
3322 0.0552779 0.14877 0.0599351 0.21061 -4.31776 -0.231307 -0.218877 -0.355485 
3320 0.00503936 0.149064 0.0592916 0.133115 -4.33892 -0.409733 -0.40585 0.379809 
1683 0.0787249 0.125393 7.39394e-05 0.652528 -4.38279 0.66667 0.229349 0.183211 
1723 0.0806084 0.173813 0.00366826 0.369601 -4.25214 0.659411 0.198401 -0.985841 
1724 0.104675 0.148953 0.00147485 0.156809 -4.37647 0.131622 0.160991 -0.163534 
2484 0.103688 0.126131 0.0311415 0.337921 -4.32728 0.391078 -0.560878 -0.146056 
2523 0.0801851 0.15074 0.0296259 0.629793 -4.32411 0.0936585 -0.908472 0.986988 
2524 0.105595 0.173734 0.0321656 0.375951 -4.3125 -0.456109 -0.782591 -0.443916 
3283 0.0796844 0.12461 0.0591577 0.10836 -4.35669 -0.0399178 -0.0227386 -0.00124945 
3323 0.0805503 0.171545 0.0616028 0.565315 -4.32897 -0.408715 0.419028 -0.626838 
3324 0.103475 0.148318 0.062365 0.746072 -4.30051 0.326268 0.240777 -1.45133 
1685 0.129019 0.124991 0.00184615 0.15966 -4.36046 0.375111 0.125632 0.0968741 
1725 0.130686 0.172275 0.0021635 0.328075 -4.35909 -0.388498 0.350275 0.257087 
1726 0.154258 0.149991 0.000645855 0.439495 -4.35909 0.0676583 -0.582507 0.681945 
1727 0.177599 0.172982 0.00295102 0.509301 -4.30133 0.559896 0.205597 0.566777 
2486 0.153473 0.124798 0.0314299 0.125815 -4.37326 -0.0736025 -0.390337 -0.12621 
2525 0.129237 0.14914 0.032126 0.12335 -4.34836 -0.0736638 -0.15862 -0.303487 
2527 0.178895 0.149154 0.0325889 0.290549 -4.33297 -0.666957 0.116028 -0.665141 
2526 0.154372 0.173105 0.0324556 0.207036 -4.34421 -0.450751 -0.628063 0.0708078 
3285 0.128345 0.124007 0.0600079 0.146113 -4.36002 0.320165 -0.394711 -0.543667 
3287 0.177829 0.123972 0.0591318 0.269298 -4.34079 -0.111766 -0.319153 0.697047 
3325 0.127841 0.173033 0.0599462 0.347271 -4.34055 0.793149 -0.0380801 0.655696 
3326 0.153321 0.147506 0.0611022 0.348087 -4.35204 0.0947395 0.940809 -0.168179 
3327 0.178332 0.173658 0.0613075 0.187223 -4.34969 -0.265522 -0.198304 -0.00901906 
1687 0.177936 0.124815 0.00262681 0.119087 -4.39451 0.67366 -0.084117 0.367606 
1689 0.224615 0.124963 0.00269126 0.934002 -4.32631 1.11709 -0.10892 0.472368 
1728 0.202181 0.150863 0.00361621 0.500276 -4.31779 0.205698 -0.953638 0.374442 
1729 0.227698 0.173478 0.0057074 0.266227 -4.34207 0.20824 0.520403 -0.0683083 
2488 0.201625 0.122926 0.031999 0.288744 -4.36235 0.156963 0.442151 -0.112916 
2528 0.203618 0.174472 0.0336634 0.337413 -4.34018 -0.524963 -0.477703 -0.279568 
2529 0.226806 0.148891 0.032837 0.145865 -4.39612 0.0433446 -0.289629 -0.0196146 
3289 0.227511 0.121718 0.0597175 0.877038 -4.25092 -0.514843 2.00694 0.258338 
3328 0.201112 0.148377 0.0597206 0.487075 -4.32466 1.24196 0.125483 0.881279 
3329 0.22788 0.173538 0.0615388 0.0922731 -4.32406 0.127857 0.0203827 -0.341023 
1691 0.276984 0.123247 0.00226047 0.664254 -4.32501 -0.180172 0.343071 -0.22479 
1730 0.251713 0.149235 0.00375202 0.136179 -4.33195 0.340384 0.011916 0.104455 
1731 0.278216 0.176388 0.00316781 0.788674 -4.27427 -0.64359 -1.03035 1.0556 
2490 0.251827 0.124737 0.0316261 0.277642 -4.33039 -0.583277 0.0361364 -0.67869 
2530 0.253427 0.173507 0.0342463 0.501544 -4.36116 -0.2007 0.102826 -0.961603 
2531 0.276412 0.14796 0.0314468 0.333434 -4.33031 0.650198 0.800622 -0.259021 
3291 0.275244 0.124892 0.0591316 0.46722 -4.33731 0.848256 -0.639391 0.659392 
3330 0.25142 0.14804 0.0610457 0.182543 -4.33281 0.095736 0.265896 -0.245121 
3331 0.276303 0.173517 0.0619081 0.227147 -4.3302 0.533107 -0.125817 -0.509366 
1693 0.324894 0.124961 0.999319 3.12362 -4.34191 -0.108219 0.266223 -0.143934 
1732 0.300785 0.151263 0.00120663 0.323197 -4.32181 0.442195 -0.714517 0.245435 
1733 0.324339 0.17753 0.00269839 0.455062 -4.3426 0.227156 -0.326552 -0.573967 
1734 0.347087 0.151542 0.00285612 1.09232 -4.26181 0.486908 0.381972 -0.288671 
2492 0.301156 0.122717 0.0291272 0.717375 -4.29342 -0.215596 0.874523 0.165433 
2494 0.348058 0.123929 0.0298062 0.295713 -4.36181 -0.632525 0.329232 -0.384627 
2532 0.302288 0.174872 0.0325758 0.325656 -4.32479 -1.15009 0.083429 0.25732 
2533 0.325201 0.151641 0.0302309 0.574343 -4.25145 -0.392508 -1.12688 0.14709 
2534 0.35029 0.177046 0.0319719 0.579483 -4.34184 -0.436793 -0.399658 -0.221648 
3293 0.32387 0.122145 0.0582071 0.540359 -4.32109 0.485735 0.662445 -0.194738 
3332 0.302128 0.14715 0.0601168 0.61622 -4.32493 -0.731161 0.724588 -0.683875 
3333 0.325969 0.173887 0.0611421 0.268316 -4.33478 -0.354889 0.614808 -0.146236 
3334 0.347948 0.149446 0.0576571 0.467165 -4.35405 0.41869 0.0627397 0.648863 
1695 0.370917 0.126631 0.00202222 3.19535 -4.21346 0.960477 -0.594802 -0.127005 
1735 0.373604 0.177277 1.00004 0.819445 -4.41681 -0.268674 -0.327795 -0.221125 
1736 0.397774 0.150529 0.996398 5.28466 -4.32901 -0.448383 -0.413668 0.532819 
2496 0.397659 0.124461 0.029394 0.571519 -4.31103 -0.489337 1.05932 0.193878 
2535 0.372476 0.150996 0.0296998 0.427347 -4.3455 0.735307 0.000417495 -0.192774 
2536 0.399176 0.174768 0.0281424 0.843469 -4.30726 -1.36492 -0.186932 0.829025 
3295 0.371159 0.125821 0.0572841 0.85979 -4.32663 1.15789 -0.663027 0.270857 
3335 0.375442 0.173951 0.060396 0.522858 -4.34128 -0.857454 -0.305864 -0.77005 
3336 0.397991 0.148354 0.0598481 0.583979 -4.30532 0.0325519 0.66503 -0.789135 
1697 0.421523 0.127179 -0.000988233 3.74228 -4.18621 0.6821 -0.11368 0.26209 
1737 0.422917 0.176032 0.00412816 0.737372 -4.30267 1.05438 0.212576 -0.824703 
1738 0.447334 0.152521 0.00510813 1.4646 -4.2813 0.279144 -0.335605 -0.913412 
2498 0.446855 0.127028 0.0294989 0.353387 -4.32061 -0.0794194 -0.764296 0.249429 
2537 0.422024 0.150709 0.0285527 0.60655 -4.29063 -0.353993 -0.666439 1.04737 
2538 0.447403 0.176837 0.0332036 0.496302 -4.36535 -0.0709823 -0.702235 -0.144379 
3297 0.422138 0.125719 0.0601806 0.389207 -4.29004 0.69622 0.0602498 -0.749728 
3337 0.421006 0.174507 0.0587892 0.514958 -4.40218 0.487783 -0.372842 0.380386 
3338 0.446241 0.150049 0.060239 0.304281 -4.38421 0.232776 -0.194292 -0.612809 
1699 0.471278 0.127465 0.00105129 0.363288 -4.34006 -0.245932 -0.43794 -0.584086 
1701 0.519844 0.126913 0.00220997 0.637971 -4.34878 0.287103 -0.460123 -0.256786 
1740 0.495347 0.150963 0.0031383 0.168672 -4.31725 0.37945 0.348221 -0.151924 
1741 0.520945 0.175855 0.00634861 0.17112 -4.39647 -0.264617 -0.1379 -0.548114 
2500 0.495161 0.1249 0.0302639 0.11531 -4.37254 0.496858 -0.268214 0.0394426 
2539 0.473287 0.150103 0.0313721 0.618092 -4.2935 -1.32258 0.19422 0.597567 
2540 0.49575 0.173677 0.0337955 0.266435 -4.34708 0.284102 0.704412 -0.0423254 
2541 0.520844 0.148955 0.0334898 0.276537 -4.39707 -0.22247 0.257342 -0.483307 
1739 0.471233 0.175938 0.00438997 0.25565 -4.35327 0.557376 0.219388 -0.0459937 
3299 0.471706 0.124226 0.0580625 0.125973 -4.3535 -0.511747 -0.0941093 0.106775 
3301 0.520499 0.123303 0.0599808 0.113015 -4.37398 0.264657 0.0226198 0.0855335 
3339 0.470032 0.174168 0.0619454 0.457439 -4.32935 1.01851 0.0144899 -0.479085 
3340 0.496143 0.148258 0.0604524 0.131812 -4.32506 0.108076 0.697332 0.0701267 
3341 0.521287 0.174027 0.0611307 0.24589 -4.34123 -0.555816 -0.10096 0.418317 
1703 0.570284 0.123083 0.0063962 0.691695 -4.27617 -0.0871717 1.1416 -0.750189 
1742 0.545505 0.150647 0.0044521 0.242002 -4.40072 0.110213 -0.305987 -0.158757 
1743 0.569959 0.176257 0.00821081 0.273887 -4.33786 -0.0875035 0.479678 -0.612971 
2502 0.544045 0.124213 0.0318681 0.446987 -4.35142 0.710027 0.0653409 0.0675091 
2542 0.544287 0.175283 0.0337236 0.304505 -4.33959 0.708539 -0.0087993 0.560346 
2543 0.568293 0.150436 0.0335395 0.262498 -4.36378 0.130313 -0.216591 0.324506 
3303 0.569905 0.124668 0.0597934 0.168978 -4.34319 0.0536282 -0.439882 0.0371831 
3342 0.545096 0.149012 0.0625896 0.289477 -4.37543 -0.0818673 -0.0755106 -0.451392 
3343 0.569645 0.175615 0.0628231 0.261179 -4.39545 -0.217861 -0.385175 -0.111919 
1705 0.617828 0.12538 0.00788375 0.302445 -4.36579 0.747359 -0.705223 -0.122385 
1744 0.592958 0.150357 0.00668396 0.320671 -4.33307 0.538665 0.236976 0.0593456 
1745 0.618247 0.17547 0.00803296 0.286213 -4.36243 -0.250183 -0.138466 0.977892 
2504 0.592957 0.125878 0.032499 0.536149 -4.2698 0.477358 -0.897509 0.610972 
2544 0.593097 0.175228 0.03459 0.375736 -4.31813 0.298718 0.205167 0.550385 
2545 0.616897 0.149905 0.0359028 0.181552 -4.31879 0.825301 0.417447 -0.588868 
1746 0.642072 0.150052 0.00924773 0.317884 -4.30504 -0.0752607 0.191403 0.522795 
2506 0.642783 0.124987 0.0368795 0.313477 -4.30014 -0.245883 -0.526764 -0.368755 
2546 0.64226 0.176457 0.0378532 0.418119 -4.27156 -0.948257 -0.531648 0.179138 
3305 0.617738 0.125002 0.0611527 0.452429 -4.31246 -0.0577923 -1.19235 0.164724 
3344 0.594015 0.150113 0.0623919 0.156837 -4.3353 -0.82983 -0.311426 -0.0398525 
1707 0.665717 0.126687 0.0105396 0.355685 -4.34088 0.798779 -0.375323 0.331096 
1747 0.66285 0.176478 0.0103492 0.974078 -4.25971 1.59969 -0.0592515 0.272672 
1748 0.689652 0.1525 0.0132076 0.20319 -4.29507 -0.482313 0.21096 -0.318563 
2508 0.690188 0.12777 0.0409168 5.61422 -4.13854 0.667339 -0.445861 -0.804218 
2547 0.665889 0.153652 0.0392067 0.965724 -4.29323 0.126171 -1.06689 -0.00966544 
2548 0.689192 0.177381 0.0427652 0.225363 -4.32931 0.309655 0.188577 -0.163806 