ITEM: TIMESTEP
2250
ITEM: NUMBER OF ATOMS
28567
ITEM: BOX BOUNDS pp pp pp
-4.9031447392124505e-01 7.0890314473921649e+01
-2.9011086440009848e-01 7.0690110864400111e+01
3.9775819241309445e+00 6.6422418075869373e+01
ITEM: ATOMS id xs ys zs c_csym c_peratom fx fy fz 
1601 0.0245455 0.0251474 0.00815827 0.167702 -4.35563 -0.0541486 -0.0031063 -0.662787 
1642 0.0506366 0.0500106 0.00564711 0.218113 -4.36281 -0.179829 -0.0417271 0.379641 
1602 0.0500608 -0.000734035 0.00452012 0.637718 -4.35189 -0.31893 0.421317 0.472836 
2402 0.0503871 0.0236824 0.0337346 0.352195 -4.3605 0.0799123 0.870632 -0.214539 
2441 0.0260332 0.049847 0.0353814 0.129916 -4.37606 0.0480698 0.125872 -0.269196 
3201 0.026074 0.0257128 0.0625559 0.316171 -4.35836 -0.25064 -0.531749 -0.00535803 
3242 0.0516563 0.048423 0.0623235 0.439528 -4.36924 -0.0937126 0.924092 -0.10418 
1603 0.0748694 0.0248912 0.00415233 0.344022 -4.35996 -0.174744 -0.0878508 0.986651 
1644 0.0994293 0.0490529 0.00486765 0.243777 -4.34175 0.314262 0.362298 0.488127 
2404 0.0992727 0.0245611 0.0334756 0.280226 -4.35143 0.421544 0.515542 -0.331527 
2443 0.0747853 0.0504121 0.0331786 0.1512 -4.35731 0.221835 -0.300552 0.261151 
3203 0.0756056 0.0242195 0.06125 0.104312 -4.32284 0.185882 0.402024 0.115867 
3244 0.100951 0.0500913 0.0603485 0.110659 -4.37323 -0.649155 0.203242 -0.117362 
1605 0.125168 0.0245831 0.00449557 0.140867 -4.35091 0.167662 0.201724 0.0166045 
1607 0.175337 0.0238866 0.0025285 0.398992 -4.33108 -0.290219 0.956514 -0.176244 
1646 0.151885 0.0500132 0.00351291 0.477902 -4.31341 -1.06413 -0.290021 -0.725095 
2406 0.150419 0.0258825 0.0314015 0.213798 -4.3581 0.119789 -0.305519 -0.121879 
2445 0.125073 0.0501207 0.0306612 0.245378 -4.35574 0.0327043 0.0762211 0.124895 
2447 0.175283 0.0519429 0.0279056 0.601174 -4.26498 0.566631 -1.00457 1.05806 
3205 0.126216 0.0263737 0.0600532 0.45691 -4.35421 -0.284241 -0.444033 -0.804477 
3207 0.175871 0.0251307 0.0584106 0.180438 -4.37999 -0.122401 0.0816013 -0.357674 
3246 0.150919 0.0506929 0.0585125 0.134007 -4.38744 0.069821 0.137106 -0.0107523 
1609 0.222805 0.0243356 0.00297096 0.497038 -4.33217 0.830975 -0.0770426 -1.10729 
1648 0.199804 0.0498826 0.00122726 0.145417 -4.32684 -0.346098 0.119473 0.525627 
2408 0.200438 0.0259805 0.0290059 0.311344 -4.29101 -1.06738 0.0388643 0.736821 
2449 0.224452 0.0504073 0.0298462 0.182524 -4.37213 -0.347485 0.015532 -0.538893 
3209 0.22406 0.0255498 0.0573444 0.118641 -4.35506 -0.323833 0.0983305 -0.0128926 
3248 0.198866 0.0517202 0.057116 0.395992 -4.35287 0.464675 -0.448982 -0.0160658 
1611 0.273255 0.0263292 0.00135779 0.116267 -4.33724 0.135259 -0.159574 0.16337 
1650 0.248212 0.0504807 0.00151728 0.130303 -4.39107 0.0885393 -0.337675 0.132467 
2410 0.248514 0.0240857 0.0290722 0.498859 -4.37181 -0.23116 0.551135 0.00743087 
2451 0.272429 0.0507898 0.0294678 0.230389 -4.34596 0.754304 0.0905647 -0.369086 
2411 0.272602 0.00152082 0.0313995 0.648991 -4.30041 0.387675 -0.0570408 -1.16799 
3211 0.272521 0.0272091 0.0578528 0.478046 -4.36311 0.53045 -0.825583 -0.209047 
3250 0.248727 0.0495028 0.0553241 0.508327 -4.29166 -0.491525 0.81602 0.669627 
1613 0.323668 0.0274409 0.00178532 0.327736 -4.37208 0.150533 -0.00364167 -0.279217 
1652 0.298483 0.0512415 0.000994546 0.10157 -4.33432 0.139633 -0.11122 0.0853692 
1654 0.348877 0.0499449 -0.000197642 0.344881 -4.32557 0.0416893 0.253376 0.6137 
1612 0.298412 0.00352266 0.0023414 0.530565 -4.31788 -0.409657 -0.675303 -0.662391 
2412 0.29838 0.0276517 0.0289428 0.324515 -4.32668 -0.717466 -0.0533062 0.171035 
2414 0.349211 0.0261687 0.0290551 0.392098 -4.33405 -0.757155 -0.288312 -0.10215 
2453 0.323416 0.0522832 0.0300532 0.442511 -4.33192 0.20744 -0.271416 -0.566383 
3213 0.322431 0.0266903 0.0541458 0.762202 -4.30469 0.644374 -0.714697 1.28792 
3252 0.298381 0.0504915 0.0587497 0.540403 -4.33578 -0.427058 0.632919 -0.877278 
3254 0.34738 0.0513824 0.0567172 0.362617 -4.34673 0.444259 -0.369252 0.246691 
1615 0.372791 0.025163 0.000327504 0.332302 -4.39971 0.234318 -0.119653 -0.175615 
1656 0.399345 0.0503566 0.00137273 0.428127 -4.3333 -0.142973 0.161683 -0.0943118 
2416 0.399426 0.0250925 0.0272096 0.276839 -4.37865 -0.343114 0.136157 0.765972 
2455 0.372227 0.0495789 0.0283834 0.499182 -4.36158 0.99962 0.665734 0.028049 
1616 0.399352 0.00166222 0.000152083 0.222562 -4.33086 -0.00966247 0.104252 -0.0863358 
3215 0.374309 0.0253841 0.0562509 0.130174 -4.3631 -0.133055 0.117199 0.320065 
3256 0.399623 0.0493216 0.056584 0.281257 -4.35312 -0.521104 0.592743 0.242015 
1617 0.423835 0.0258774 -0.000740123 0.53955 -4.34523 0.362012 0.546031 0.0743702 
1658 0.447351 0.0508717 0.00187354 0.711054 -4.3206 0.726409 0.281812 -0.130829 
2418 0.449799 0.0254875 0.0279477 0.540118 -4.34702 -0.338494 -0.132416 0.545481 
2457 0.423746 0.0493487 0.0295124 0.236059 -4.34496 0.324824 0.415213 -0.0152005 
3217 0.424395 0.0255582 0.0584349 0.322049 -4.35128 -0.114307 -0.221613 -0.50455 
3258 0.449231 0.0486798 0.0580435 0.546087 -4.33127 -0.0675067 1.09174 -0.363842 
1619 0.476171 0.026127 0.00317871 0.574759 -4.35066 -0.181157 0.123542 -0.242496 
1621 0.52425 0.023781 0.00305784 0.254892 -4.37194 -0.150266 0.425815 0.403708 
1660 0.501104 0.0507505 0.00281965 0.430686 -4.30885 -0.210758 -0.976947 0.445954 
2420 0.498886 0.0248836 0.0325565 0.284967 -4.35243 0.27547 0.0632521 -0.735105 
2459 0.473507 0.0504232 0.0305124 0.268507 -4.33958 0.452327 -0.00608424 -0.193626 
2461 0.524692 0.0485758 0.034405 0.425612 -4.35031 -0.400549 -0.103393 -0.685102 
3219 0.473778 0.0248709 0.0575859 0.221779 -4.35092 -0.20427 -0.0141188 0.341189 
3221 0.522947 0.0236067 0.0611771 0.215629 -4.35366 0.39962 0.12116 -0.377673 
3260 0.497991 0.0500377 0.0599683 0.201852 -4.37156 -0.134044 0.0949676 -0.280811 
1623 0.573653 0.0232656 0.0054328 0.225452 -4.39566 0.398952 0.494174 0.288251 
1662 0.549597 0.0489231 0.00613598 0.173069 -4.37257 -0.0701888 -0.742089 0.0437067 
2422 0.548148 0.0225512 0.034136 0.356865 -4.34704 -0.053783 0.587591 -0.661969 
2463 0.574273 0.0474503 0.0350614 0.185749 -4.35251 -0.422988 0.109529 -0.0321506 
3223 0.572047 0.0226964 0.0612336 0.506658 -4.3317 0.847377 0.584412 0.0261887 
3262 0.548657 0.0489742 0.0621693 0.259865 -4.35721 -0.202097 -0.471338 0.161324 
3222 0.548706 0.998942 0.0608327 0.139773 -4.33079 -0.524521 -0.635884 -0.216415 
1625 0.624518 0.0239602 0.00751943 0.130307 -4.33242 0.0781403 0.186845 -0.541507 
1664 0.598592 0.0486781 0.00752957 0.210907 -4.34159 0.345613 -0.13179 -0.55981 
2424 0.599157 0.0235759 0.0336265 0.225324 -4.35287 -0.429405 -0.0752148 0.34517 
2465 0.623657 0.0464935 0.0348821 0.783084 -4.31252 -0.327757 1.57965 0.608003 
3225 0.623077 0.0232519 0.0643043 0.176985 -4.33627 0.336758 0.597401 -0.0677195 
1627 0.672983 0.0247278 0.00891382 0.183311 -4.33725 0.144184 -0.493068 0.444074 
1666 0.64983 0.0504217 0.00891106 0.452699 -4.40874 -0.397554 -0.0466107 0.115616 
1668 0.696854 0.0483175 0.00879474 0.5068 -4.34145 0.752136 0.320541 0.521621 
2426 0.647767 0.0245682 0.0365257 0.291914 -4.32342 1.03457 -0.289133 -0.155006 
2428 0.698103 0.0257416 0.0387212 0.487703 -4.32488 -0.0151791 -0.740953 -0.555255 
2467 0.673307 0.0490508 0.0385977 0.29603 -4.3728 0.107822 0.0818401 -0.167474 
3227 0.674225 0.0232218 0.0660538 0.485537 -4.34986 -0.217435 0.805299 -0.467974 
3266 0.647844 0.04792 0.0636717 0.386343 -4.36141 -0.0932526 0.0864091 0.761578 
3226 0.648567 1.00064 0.0638379 0.276728 -4.39618 -0.215778 -0.453237 0.286045 
1629 0.722035 0.0228813 0.00984237 0.298902 -4.32121 0.0205682 0.552854 0.160387 
1670 0.747293 0.0490916 0.0133455 0.96885 -4.2845 -0.605873 0.0256033 -0.563076 
2430 0.747893 0.0239636 0.0387261 0.420252 -4.3096 0.0455729 0.115129 -0.945286 
2469 0.72241 0.050069 0.0392674 0.27119 -4.32442 0.0980143 0.0538497 -0.683868 
3229 0.722335 0.0250824 0.0652006 0.291893 -4.31221 -0.452083 -0.252139 0.183768 
3270 0.747725 0.0489811 0.0648653 0.284261 -4.40496 0.351125 0.618048 0.128059 
1631 0.773996 0.0250562 0.00855759 0.671456 -4.33583 -0.683469 -0.685178 -0.388063 
1672 0.796991 0.0503692 0.00714299 0.776881 -4.353 0.50266 0.455084 0.323561 
2432 0.798011 0.0240365 0.0355156 0.47445 -4.32005 0.43743 0.841175 0.365225 
2471 0.772717 0.0499508 0.0375591 0.256521 -4.36426 0.571561 -0.353461 0.0591904 
1633 0.82361 0.0276938 0.0073592 0.390931 -4.34376 0.0578328 -0.497748 0.134929 
2473 0.824087 0.0509433 0.0346838 0.381387 -4.32293 0.00179426 -0.251935 0.650071 
1632 0.798611 -0.000968785 0.00688298 0.611846 -4.29649 -0.420437 1.16421 0.0133129 
2433 0.82371 0.00196173 0.0343804 0.533317 -4.35715 0.159395 -0.0437598 0.577176 
3231 0.773612 0.0232673 0.0662198 0.627906 -4.37794 -0.0101876 0.716031 -0.239779 
3232 0.800447 0.00129935 0.0649498 0.613067 -4.36252 -0.275398 -0.0233769 -0.130887 
3272 0.798381 0.0491744 0.0648789 0.246585 -4.32291 0.115284 -0.608639 -0.428373 
1635 0.873992 0.0263301 0.00927946 0.426098 -4.32613 0.610398 0.0906173 -0.231435 
1674 0.850704 0.0514738 0.00690126 0.436852 -4.34513 -0.476351 0.184818 0.417044 
2434 0.849559 0.0268717 0.0372038 0.566519 -4.33837 -0.337135 -0.204453 -1.04646 
2475 0.874071 0.0529704 0.0360777 0.751486 -4.29988 0.375651 -1.22018 -0.371313 
1634 0.849221 0.00322645 0.00770323 0.615806 -4.28996 -0.641133 0.01239 0.603122 
3235 0.872869 0.0251093 0.0625646 0.581434 -4.31723 1.37827 -0.371123 0.229975 
3274 0.850878 0.0507166 0.0644785 0.39661 -4.30142 -0.8205 -0.0561905 -0.162532 
3234 0.848273 -0.000417906 0.062616 0.305823 -4.34595 0.254857 0.24827 0.222205 
1637 0.92499 0.0276033 0.00859292 0.514829 -4.32595 -0.255015 -0.679139 -0.497461 
1676 0.899037 0.0507753 0.00606783 0.640048 -4.30726 0.431013 0.319461 1.05245 
1636 0.900705 -0.000728004 0.0103964 1.80264 -4.19397 -0.288252 1.44437 -1.56778 
2436 0.898645 0.0259896 0.0355842 0.314864 -4.31637 0.195073 -0.367086 0.279398 
2477 0.924919 0.049319 0.0376216 0.426103 -4.26293 -0.147972 0.541959 -1.12669 
3237 0.925019 0.024497 0.0633197 0.243159 -4.34363 -0.756254 -0.574085 -0.174782 
3276 0.899712 0.0494551 0.0644404 0.190436 -4.37514 -0.489546 -0.00961915 -0.0874616 
3236 0.900031 0.998651 0.064292 0.418354 -4.34046 -0.614101 0.178071 -0.767649 
1640 9.19086e-06 0.050611 0.00991824 0.481733 -4.36337 0.0565874 0.163228 -0.873299 
1639 0.975408 0.0261405 0.00682739 0.224376 -4.36471 -0.278903 0.254377 0.385131 
1678 0.951341 0.0515182 0.00614925 0.492808 -4.31092 -0.841655 -0.317224 0.956653 
2400 0.999062 0.0252185 0.035109 0.202565 -4.35711 0.248269 0.248928 0.383792 
2438 0.950591 0.026089 0.0358923 0.331981 -4.31371 -0.701236 0.210663 -0.334758 
2479 0.975245 0.0513962 0.0358688 0.38358 -4.35866 -0.271584 -0.193422 0.48225 
1638 0.94915 0.00220152 0.00879391 0.578661 -4.34639 0.322957 -0.392061 -0.631854 
3240 1.00226 0.0495347 0.0635482 0.53743 -4.33098 -1.01142 0.392779 -0.291901 
3239 0.973551 0.0267349 0.0631016 0.792785 -4.32092 0.868471 -0.673639 0.397949 
3278 0.948755 0.0481434 0.0655182 0.701228 -4.29037 0.58472 1.0794 -0.380757 
1641 0.0258328 0.075035 0.00823085 0.202781 -4.35081 -0.329982 0.333628 -0.195329 
1682 0.05099 0.101025 0.0054942 0.24937 -4.31673 -0.255386 -0.0318805 0.521432 
2442 0.0499819 0.0763898 0.0338587 0.276926 -4.32013 0.313511 -0.236592 0.178791 
2481 0.0243877 0.100974 0.0345696 0.237857 -4.35008 0.624905 -0.389594 0.130531 
2440 -0.000275041 0.076202 0.0370164 0.515227 -4.36289 0.390806 -0.684771 -0.114111 
3241 0.0273283 0.0749236 0.0622071 0.341598 -4.37887 -0.310972 -0.00386746 0.228406 
3282 0.0509036 0.100452 0.0630639 0.295606 -4.33325 0.285068 0.152787 -0.70473 
3280 -0.000281832 0.0998358 0.0641322 0.305556 -4.35192 0.401587 0.153055 -0.339717 
1643 0.0745656 0.0751852 0.00701053 0.312535 -4.35055 0.289378 0.157786 -0.44661 
1684 0.101343 0.101053 0.0054501 0.392259 -4.36161 -0.436511 -0.150921 -0.846023 
2444 0.100655 0.0765387 0.0327648 0.325883 -4.36846 -0.100858 -0.769337 -0.455829 
2483 0.0762457 0.101139 0.0332563 0.228571 -4.3394 -0.649832 -0.139285 -0.126849 
3243 0.0745581 0.0761308 0.0603937 0.631669 -4.35453 0.697504 -0.535039 0.482251 
3284 0.100184 0.0993175 0.0614907 0.461738 -4.3713 0.131605 0.651071 0.00919264 
1645 0.126452 0.0755561 0.00310022 0.479149 -4.3001 -0.865516 -0.73785 0.472297 
1647 0.174486 0.0759034 0.00175975 0.193996 -4.31763 0.389102 0.40195 0.30965 
1686 0.148919 0.0999948 0.00384776 0.408521 -4.30575 0.520894 1.07902 -0.255266 
2446 0.150372 0.0751876 0.0289761 0.368017 -4.31094 -0.367233 0.235919 1.10745 
2485 0.124971 0.101411 0.0326398 0.378126 -4.33097 0.300742 -0.859994 -0.334808 
3245 0.124767 0.0739851 0.0592984 0.340535 -4.35668 0.669553 0.58073 0.140755 
3247 0.175212 0.0752552 0.0558734 0.408802 -4.32665 -0.142558 0.441546 0.895542 
3286 0.150013 0.0990886 0.0594503 0.475344 -4.38439 0.121175 0.319422 -0.283834 
2487 0.174669 0.102127 0.0295729 0.244857 -4.3443 -0.000577375 -0.541983 -0.0432885 
1649 0.224296 0.0764924 0.000624883 0.469599 -4.31081 0.0723378 -0.500497 0.81247 
1688 0.200309 0.102386 0.00201655 0.158431 -4.35538 -0.644454 -0.10528 0.363466 
2448 0.200834 0.0770113 0.0281149 0.413392 -4.36734 -0.722015 -0.511478 -0.193398 
2489 0.224421 0.101941 0.0310543 0.58117 -4.35604 0.358606 0.283335 -0.804337 
3249 0.223666 0.0761771 0.0551613 0.467442 -4.31503 0.323459 -0.230466 1.27402 
3288 0.198689 0.101677 0.0551913 0.615731 -4.30555 0.659041 -0.112477 0.915515 
1651 0.274684 0.0753967 0.000706802 0.389086 -4.36246 -0.246436 0.0151554 0.391227 
1690 0.248373 0.100416 0.00264358 0.221592 -4.3474 0.194481 0.254984 -0.305489 
2450 0.24825 0.0752747 0.0287874 0.145209 -4.36864 0.299224 0.376037 0.0187405 
2491 0.273459 0.100602 0.0293165 0.18335 -4.37325 0.583278 -0.364279 0.0315892 
3251 0.272785 0.0748662 0.0574853 0.254083 -4.36481 0.423016 0.266318 -0.333377 
3290 0.250023 0.100656 0.0570595 0.157939 -4.37799 -0.28312 0.338072 0.255334 
1653 0.325749 0.0753473 0.000362881 0.624349 -4.28095 -1.70864 0.102666 -0.12786 
1692 0.299422 0.101641 1.00102 0.705977 -4.31806 -0.221229 -1.00553 -1.01673 
1694 0.348302 0.098506 -0.00269901 0.8351 -4.21537 0.418907 0.7476 1.34157 
2452 0.299455 0.0752323 0.0301079 0.289505 -4.35931 -0.569813 0.257474 -0.396891 
2454 0.348497 0.0751316 0.027645 0.161531 -4.34755 0.142277 0.267354 0.274706 
2493 0.322952 0.100952 0.0282931 0.415499 -4.32426 0.901075 -0.589397 0.0189345 
3253 0.323014 0.0772181 0.0587875 0.741607 -4.32383 0.46811 -0.693211 -0.871299 
3292 0.298049 0.100551 0.0566181 0.245491 -4.36092 0.288736 0.375 0.0589323 
3294 0.34826 0.100091 0.0560461 0.165712 -4.37474 0.400397 -0.0991539 0.198018 
1655 0.375857 0.0755985 -0.000530214 0.841304 -4.30842 -0.870355 -0.446768 0.424658 
1696 0.399543 0.100352 0.000900815 0.648017 -4.30826 -0.0684108 0.129009 0.0253525 
2456 0.398282 0.0745389 0.0282769 0.185499 -4.32649 0.214237 -0.252781 0.313597 
2495 0.373456 0.0985369 0.0268868 0.417708 -4.32373 -0.334289 0.773248 -0.2602 
3255 0.372942 0.0754579 0.0561641 0.138192 -4.34672 0.157838 -0.678988 -0.0686451 
3296 0.396518 0.0991141 0.0538611 0.96322 -4.30982 1.03301 0.660859 0.830252 
1657 0.422776 0.0762889 0.00124459 0.428229 -4.35064 0.513499 -0.20477 0.422447 
1698 0.449336 0.0999132 0.00156172 0.243023 -4.34552 -0.336995 -0.264154 0.234197 
2458 0.449347 0.0748252 0.0300138 0.211951 -4.3738 -0.35575 0.102668 -0.0777579 
2497 0.423813 0.100208 0.0292605 0.126496 -4.33196 -0.0384844 -0.040017 -0.152958 
3257 0.423576 0.0760047 0.0564875 0.287204 -4.36142 -0.0496409 -0.666565 0.0613862 
3298 0.448284 0.100981 0.0564947 0.174825 -4.33404 0.0363746 -0.351847 0.119187 
1659 0.475314 0.0749621 0.00299802 0.285593 -4.30124 -0.627263 -0.288562 0.0645097 
1661 0.524859 0.073094 0.00582014 0.260099 -4.31907 0.462924 0.359724 -0.25781 
1700 0.499945 0.098091 0.00362552 0.301921 -4.36534 0.136906 0.797984 -0.574778 
2460 0.499191 0.0747225 0.0300661 0.2388 -4.31512 -0.150784 -0.40511 1.0156 
2499 0.473193 0.100952 0.0281676 0.608779 -4.35108 0.523512 -0.406005 0.910529 
2501 0.52374 0.0986844 0.0324017 0.08433 -4.3243 0.505619 -0.29042 0.0974443 
3259 0.474402 0.0762657 0.0577238 0.380975 -4.36224 -0.416131 -0.345948 -0.0650978 
3261 0.523419 0.0736525 0.0603899 0.127394 -4.36584 0.0546885 0.559272 -0.115538 
3300 0.499288 0.0996689 0.0576136 0.3594 -4.30634 -0.803718 -0.103533 0.451949 
1663 0.57479 0.0719672 0.00711961 0.2337 -4.33708 -0.411071 0.247452 -0.280569 
1702 0.549228 0.0967957 0.00627214 0.300339 -4.3804 0.0222114 0.490475 0.156862 
2462 0.549889 0.0724274 0.0344318 0.189882 -4.33872 -0.252213 0.368404 -0.0970854 
2503 0.574211 0.0970508 0.0345495 0.370986 -4.3174 -0.703783 0.297465 0.622596 
3302 0.548975 0.0985607 0.0604599 0.44842 -4.35308 -0.410107 -0.0480881 0.455243 
1665 0.622892 0.0742841 0.00876425 0.291628 -4.33548 -0.214687 -0.932347 -0.239902 
1704 0.597272 0.097813 0.00880072 0.213668 -4.34415 0.40587 0.13301 -0.739925 
2464 0.59797 0.0727465 0.0358453 0.11698 -4.36345 0.232571 -0.325687 0.363053 
2505 0.621966 0.0979076 0.0355892 0.456112 -4.31284 -0.0266695 -0.153479 0.977795 
1706 0.646796 0.0959936 0.0105444 1.049 -4.28656 0.345425 1.45415 -0.714991 
2466 0.648659 0.0738199 0.038874 0.386743 -4.35916 -0.545728 -0.467558 -0.410043 
3304 0.597904 0.0960599 0.0647534 0.522575 -4.34329 -0.188036 1.19087 -0.383324 
3306 0.6463 0.096073 0.0667795 0.723573 -4.33879 0.053974 1.10067 -0.132428 
1667 0.673316 0.0750025 0.0103022 0.345104 -4.3394 -0.142067 -0.417384 -0.107106 
1708 0.696101 0.100789 0.0123774 0.347504 -4.29567 0.10235 -0.888239 0.0514022 
2468 0.696834 0.0748037 0.0378391 0.311899 -4.36766 0.124292 -0.301691 0.434287 
2507 0.671736 0.0995815 0.0397141 0.305527 -4.35334 -0.0287939 -0.821913 -0.213901 
3267 0.672551 0.0739967 0.0674545 0.354657 -4.33501 0.24795 -0.234746 -0.499663 
1669 0.722009 0.074485 0.011977 0.287016 -4.28731 -0.626515 -0.461742 0.119079 
1710 0.746656 0.0986789 0.0113864 0.276285 -4.24378 -0.00899984 0.922733 0.561611 
2470 0.748725 0.0762609 0.0380021 0.641392 -4.35329 -0.214156 -0.644399 0.593554 
2509 0.721946 0.0991238 0.0397314 0.134036 -4.36149 -0.0457064 0.232909 -0.0432886 
1671 0.773771 0.0751759 0.0101047 0.696382 -4.36121 0.0951187 0.213012 0.159329 
1712 0.802407 0.100398 0.0109299 1.39851 -4.29019 -1.42381 0.0670703 -0.300925 
2472 0.799833 0.0750029 0.038964 0.499354 -4.32577 -0.263255 -0.167029 -0.907909 
2511 0.774293 0.0999429 0.0381985 0.254933 -4.34618 -0.127328 -0.0460694 -0.230539 
1673 0.824851 0.0756152 0.00874719 0.237897 -4.31153 0.018484 -0.122226 -0.347862 
2513 0.826714 0.100189 0.0372361 0.525498 -4.34293 -0.32751 0.225959 0.0722062 
3271 0.774188 0.07348 0.0656481 0.266429 -4.34931 -0.551563 0.530509 -0.139544 
3273 0.824786 0.0737158 0.0651376 0.281491 -4.36293 0.129776 0.193196 -0.598453 
1675 0.874217 0.0774021 0.00882228 0.612376 -4.3156 0.761149 -0.452218 -0.635909 
1714 0.850931 0.100986 0.00657155 0.437919 -4.32708 0.0130581 0.664222 0.848173 
2474 0.849776 0.0757997 0.034973 0.30019 -4.33427 -0.18433 0.0172353 0.769139 
2515 0.874957 0.100632 0.0375472 0.319721 -4.36144 -0.612897 -0.0286704 -0.596899 
3275 0.874133 0.0737536 0.0650207 0.415668 -4.33081 0.230466 0.739941 0.0811389 
3314 0.850427 0.100298 0.0653905 0.256766 -4.34624 -0.185677 -0.224916 -0.237666 
1677 0.92583 0.0759339 0.00815925 0.276711 -4.35234 -0.601843 -0.273721 0.20458 
1716 0.899681 0.101241 0.0074176 0.161239 -4.36969 0.127763 -0.420886 -0.0208088 
2476 0.899244 0.0745704 0.0366142 0.343526 -4.33181 0.756836 0.36357 -0.534079 
2517 0.924791 0.102154 0.0351096 0.817269 -4.32568 -0.15479 -0.869799 0.902844 
3277 0.925456 0.0730507 0.0641602 0.55548 -4.29605 -0.854266 1.07341 -0.14552 
3316 0.898323 0.0987544 0.0632775 0.692626 -4.28634 1.15377 0.27831 0.499312 
1680 -0.000274178 0.0994649 0.00836873 0.190468 -4.34655 0.181153 0.282252 -0.558991 
1679 0.975049 0.0746664 0.00697125 0.329939 -4.33695 0.153279 0.658661 0.497776 
1718 0.950106 0.100651 0.0093915 0.404329 -4.35814 0.285113 -0.284403 -0.728771 
2478 0.949583 0.0744564 0.0368807 0.286333 -4.35794 0.235778 0.0834948 -0.0950954 
2519 0.974926 0.0990359 0.0358867 0.244121 -4.38568 -0.137839 -0.133347 0.388666 
3279 0.974806 0.0745001 0.0670107 1.09684 -4.31816 0.0316318 -0.477208 -1.38374 
3318 0.949584 0.0988804 0.0646826 0.431119 -4.32949 -0.565341 0.478124 -0.992183 
1681 0.024122 0.12616 0.00764299 0.330478 -4.33459 0.332069 -0.287428 -0.361725 
1721 0.0250482 0.175458 0.00771541 0.587436 -4.36881 0.506065 0.092492 -0.525888 
1722 0.052195 0.153704 0.00647794 1.37244 -4.3384 -0.45693 -1.17155 -0.0170992 
2482 0.0508192 0.125006 0.0336909 0.266958 -4.3842 0.221341 0.286835 -0.344687 
2521 0.0261262 0.150314 0.0336243 0.189445 -4.34901 -0.202723 0.127416 0.573912 
2522 0.0511332 0.177143 0.0342559 0.413995 -4.33909 0.0345134 -0.685277 0.119099 
3281 0.0260365 0.124699 0.0612203 0.179703 -4.3585 -0.182826 0.466325 0.343336 
3321 0.0259244 0.175405 0.0623961 0.164494 -4.32932 -0.350935 -0.22759 -0.471116 
3322 0.0516262 0.150906 0.0606266 0.232363 -4.35935 -0.392334 -0.128877 0.245551 
3320 -0.000426752 0.149183 0.0619126 0.400721 -4.32097 0.726156 0.331101 0.00974941 
1683 0.0759311 0.127227 0.00380023 0.610981 -4.34183 -0.117795 -0.418026 0.0177779 
1723 0.0768855 0.176318 0.00628481 0.385619 -4.34264 -0.0107492 -0.250565 -0.401013 
1724 0.101092 0.149535 0.00446494 0.40752 -4.33361 -0.229693 0.771303 -0.344229 
2484 0.0991488 0.124402 0.0318733 0.735592 -4.31409 0.681524 0.694973 0.711059 
2523 0.0771536 0.150026 0.0338323 0.354616 -4.34881 -0.475022 0.304807 -0.3387 
2524 0.101647 0.175498 0.0333023 0.160997 -4.36929 -0.00303639 0.120976 -0.356387 
3283 0.075491 0.125963 0.0616563 0.20425 -4.3632 0.289121 -0.518659 -0.236717 
3323 0.0772268 0.173938 0.0609417 0.715588 -4.32041 -0.769191 0.822239 -0.168189 
3324 0.102145 0.150783 0.06039 0.326372 -4.32491 -0.346397 -0.325872 -0.162399 
1685 0.125048 0.126582 0.00486705 0.380596 -4.36848 0.592855 -0.368748 -0.675885 
1725 0.125605 0.175059 0.0031046 0.263277 -4.3803 0.0772815 0.00715105 0.300905 
1726 0.151786 0.152173 0.00351746 0.240196 -4.3373 -0.749891 -0.244907 0.259384 
1727 0.176475 0.176735 0.00438141 0.171792 -4.3272 -0.47802 0.418588 -0.0930058 
2486 0.150021 0.12602 0.032288 0.108334 -4.33605 0.137548 -0.00208179 -0.371838 
2525 0.125457 0.150366 0.0326664 0.233723 -4.36111 0.249561 0.288057 -0.362876 
2527 0.175435 0.152198 0.0329882 0.40937 -4.34555 0.311356 -0.540377 -0.679489 
2526 0.151269 0.175989 0.0320117 0.142899 -4.37842 -0.337287 0.293206 -0.200049 
3285 0.124769 0.124747 0.0582164 0.529024 -4.31333 0.320031 0.238346 1.0414 
3287 0.175461 0.125757 0.0582768 0.145252 -4.33472 0.179467 0.329639 -0.412212 
3325 0.127505 0.176718 0.0591564 0.524842 -4.3493 -0.698368 -0.287456 0.451902 
3326 0.150891 0.150496 0.0594544 0.0952138 -4.34299 -0.554343 -0.0742663 0.0763098 
3327 0.175039 0.175899 0.0591924 0.240035 -4.32201 0.3212 0.526811 0.310291 
1687 0.174732 0.127634 0.00480814 0.416347 -4.32721 0.0467718 -0.149523 -0.852363 
1689 0.224419 0.126964 0.00180364 0.250735 -4.32891 1.05046 0.42914 0.229288 
1728 0.201157 0.15407 0.00293411 0.451661 -4.34404 -0.0350249 -0.321721 0.168157 
1729 0.226492 0.177909 0.00364484 0.16584 -4.37791 0.0668591 -0.196185 -0.2185 
2488 0.201168 0.128432 0.0279299 1.06347 -4.31916 -0.54382 -0.324498 1.22215 
2528 0.199323 0.177799 0.0314013 0.658009 -4.33639 1.11199 -0.502511 0.446261 
2529 0.226847 0.151753 0.0311085 0.343524 -4.33054 -0.306183 0.194202 -0.893112 
3289 0.224976 0.127542 0.0575925 0.313552 -4.35305 0.170073 -0.973602 0.142708 
3328 0.201484 0.15243 0.0591837 0.428427 -4.34062 -0.575846 -0.527304 -0.616585 
3329 0.227052 0.175894 0.0565292 0.71684 -4.34609 -0.234101 0.372119 0.649778 
1691 0.272915 0.125209 0.00256599 0.748649 -4.26151 0.912857 -0.308261 -1.37369 
1730 0.251681 0.15296 0.00217511 0.531319 -4.32067 -0.927779 -0.314648 -0.0470828 
1731 0.277391 0.17563 0.00105277 0.26943 -4.3581 -0.309261 0.439814 -0.0247985 
2490 0.251039 0.125971 0.0291394 0.322799 -4.31307 -1.19508 0.0961493 0.425609 
2530 0.251875 0.177869 0.0305599 0.521634 -4.32331 0.386271 -0.601223 -0.299907 
2531 0.276114 0.149199 0.027715 0.814787 -4.31488 -0.0500664 1.345 0.80729 
3291 0.274412 0.12727 0.0576944 0.556094 -4.33724 0.427001 -0.895857 -0.287356 
3330 0.251112 0.149959 0.057542 0.313043 -4.33525 0.0100977 0.743151 -0.120412 
3331 0.275072 0.174656 0.0593766 0.514108 -4.33981 0.599891 0.0344154 -0.950786 
1693 0.325503 0.123075 -0.00250411 0.948152 -4.29293 -0.45576 0.758314 0.675832 
1732 0.300333 0.149737 1.0004 0.153747 -4.34473 0.148512 -0.126575 -0.212854 
1733 0.325972 0.175992 -0.00165589 0.218306 -4.34587 -0.0215415 -0.00150415 0.356514 
1734 0.350314 0.149952 0.997598 0.261708 -4.32815 -0.598415 0.0572545 0.307168 
2492 0.299678 0.124757 0.0287583 0.105422 -4.33172 -0.0731794 0.388413 -0.0381469 
2494 0.349952 0.124461 0.0281533 0.478808 -4.32399 -0.231937 0.0439003 -1.24153 
2532 0.301567 0.175766 0.0283471 0.183493 -4.32342 -0.606458 -0.379984 -0.0487577 
2533 0.324732 0.149886 0.0262922 0.248401 -4.38683 0.302548 -0.23991 0.0105928 
2534 0.350194 0.175377 0.0261509 0.174732 -4.32989 -0.23433 -0.506791 0.456803 
3293 0.325045 0.124953 0.0557602 0.290821 -4.34347 -0.582083 -0.138797 0.644784 
3332 0.299925 0.149783 0.0565999 0.0909089 -4.39134 0.211908 0.399814 -0.0178286 
3333 0.32476 0.174363 0.0550404 0.347461 -4.28378 0.233401 0.179392 0.468574 
3334 0.347402 0.149177 0.055892 0.58964 -4.30301 1.45069 0.431681 -0.0774945 
1695 0.375436 0.124424 -0.0027592 0.773604 -4.32516 -0.602724 -0.471001 1.17001 
1735 0.374974 0.175221 0.997243 0.550236 -4.41706 0.471293 -0.138267 -0.268361 
1736 0.400054 0.149035 0.997957 0.515314 -4.4016 0.0957548 0.148064 -0.258093 
2496 0.3982 0.125732 0.0271345 0.360529 -4.33691 0.0679288 -0.225275 0.356687 
2535 0.373862 0.151056 0.0260449 0.352556 -4.35442 0.152143 -0.400004 0.399738 
2536 0.399628 0.174674 0.0277121 0.281019 -4.33796 -0.751061 0.10946 0.00349091 
3295 0.373843 0.124441 0.0543743 0.457011 -4.33153 -0.30397 0.373103 0.69443 
3335 0.37437 0.175511 0.0562364 0.281476 -4.31422 -0.457644 -0.96761 0.450938 
3336 0.398064 0.149991 0.0565764 0.1038 -4.32763 -0.0838626 -0.0490486 0.0824029 
1697 0.424023 0.123551 0.000531517 0.286806 -4.34257 0.0620442 0.528312 -0.266134 
1737 0.423384 0.176354 0.00126286 0.617035 -4.32357 0.528841 -0.903945 -0.580266 
1738 0.449138 0.148485 0.00183409 0.425858 -4.3593 -0.532431 0.569188 -0.431711 
2498 0.449266 0.125291 0.0288669 0.132954 -4.34424 -0.550441 -0.0568681 0.390228 
2537 0.422972 0.150191 0.0300783 0.570416 -4.34579 0.42527 -0.498983 -0.645856 
2538 0.448553 0.174411 0.0283007 0.313756 -4.37472 -0.0778211 0.0721568 0.445193 
3297 0.422725 0.12361 0.0569513 0.387087 -4.33975 -0.19581 0.734514 -0.0686083 
3337 0.424265 0.175134 0.0564568 0.431027 -4.3491 -0.945835 -0.42012 0.331738 
3338 0.449931 0.150502 0.0557746 1.03119 -4.31217 -1.34118 -0.820578 0.476086 
1699 0.473684 0.125338 0.00163228 0.396551 -4.33332 0.621744 -0.299731 -0.220959 
1701 0.524668 0.123292 0.00532717 0.217709 -4.3762 -0.107204 0.241322 -0.733088 
1740 0.49834 0.149625 0.00379694 0.170584 -4.33306 0.574312 0.142394 -0.204323 
1741 0.524139 0.174067 0.00369317 0.280445 -4.36531 -0.590015 -0.120284 0.430968 
2500 0.499546 0.124001 0.0303714 0.306866 -4.36722 -0.879737 0.379613 0.101174 
2539 0.473843 0.150424 0.0295104 0.250328 -4.32818 0.235945 -0.544406 0.496439 
2540 0.497571 0.174573 0.0319422 0.116431 -4.34288 0.184424 -0.267256 -0.109989 
2541 0.523192 0.149283 0.0329884 0.140429 -4.35105 -0.413284 0.265275 -0.534919 
1739 0.472776 0.174022 0.00200396 0.373 -4.29133 0.933585 0.185615 0.305666 
3299 0.473155 0.125072 0.0586617 0.241129 -4.36691 0.339433 -0.14944 -0.523824 
3301 0.521641 0.124697 0.0590997 0.474654 -4.30853 0.667704 -0.264376 0.819385 
3339 0.472046 0.174022 0.0601681 0.532545 -4.32742 0.730811 0.862625 -0.769089 
3340 0.497694 0.149423 0.0604941 0.154253 -4.37661 -0.366137 -0.180796 -0.567127 
3341 0.521481 0.173824 0.0600944 0.222773 -4.33465 0.456725 -0.10182 0.444503 
1703 0.572523 0.123206 0.00835327 0.230338 -4.4049 0.0915028 0.227569 0.00761726 
1742 0.5479 0.148843 0.00544979 0.0870653 -4.35892 0.0357223 0.102436 -0.0427896 
1743 0.572248 0.173701 0.00591987 0.255766 -4.33577 -0.074306 0.564066 0.427296 
2502 0.546824 0.123995 0.0344339 0.3811 -4.33066 0.906328 -0.084081 -0.272468 
2542 0.54777 0.173372 0.0329016 0.287688 -4.38321 0.0131897 0.470333 0.637428 
2543 0.572554 0.149904 0.0349416 0.304448 -4.35496 -0.247922 -0.580191 0.231425 
3303 0.573183 0.124227 0.0611743 0.55633 -4.30655 -0.507666 -0.62033 0.525052 
3342 0.546009 0.149382 0.061937 0.369186 -4.36045 0.60399 -0.336782 0.00171743 
3343 0.573099 0.174439 0.0633904 0.271885 -4.34165 -0.248302 -0.345888 0.173813 
1705 0.621202 0.122764 0.00752686 0.565133 -4.33811 0.552079 -0.145724 0.90677 
1744 0.597431 0.147965 0.0094942 0.346263 -4.35305 -0.365736 0.36144 -0.386963 
1745 0.621761 0.172902 0.0101152 0.24449 -4.32771 -0.401193 0.470628 0.0500283 
2504 0.597855 0.122268 0.0367293 0.269855 -4.33342 0.00487421 0.281411 -0.202653 
2544 0.595875 0.174499 0.0361402 0.190688 -4.34761 0.486687 -0.16344 -0.225318 
2545 0.620908 0.148423 0.0375987 0.175547 -4.34605 0.206287 -0.380829 -0.078678 
1746 0.646433 0.146933 0.0120199 0.449266 -4.34618 -0.377992 0.771904 -0.0441803 
2506 0.646605 0.12089 0.0379193 0.564883 -4.32085 -0.71762 0.617992 -0.118173 
2546 0.643959 0.172878 0.0403556 0.281828 -4.32866 0.364699 0.33488 0.0481892 
3305 0.623051 0.122513 0.0644257 0.405561 -4.34504 -0.896291 -0.334407 0.481655 
3344 0.597536 0.148429 0.0638766 0.242298 -4.30823 -0.443356 -0.0806735 -0.207695 
1707 0.671114 0.123786 0.0125621 0.161468 -4.33862 -0.223618 -0.286407 -0.697646 
1747 0.66889 0.173663 0.0140983 0.23246 -4.38002 -0.164305 -0.147521 -0.0991267 
1748 0.694572 0.148908 0.0148465 0.115243 -4.35349 -0.16807 -0.223408 -0.365687 
2508 0.695534 0.123525 0.0402455 0.122128 -4.32047 0.372663 0.212506 0.54077 
2547 0.670047 0.146549 0.0410906 0.407823 -4.3157 -0.0447816 1.18099 -0.40824 