ITEM: TIMESTEP
1750
ITEM: NUMBER OF ATOMS
28567
ITEM: BOX BOUNDS pp pp pp
-3.4494269067373295e-02 7.0434494269067926e+01
-5.7422478779464825e-02 7.0457422478779421e+01
3.0980771895994175e+00 6.7301922810400896e+01
ITEM: ATOMS id xs ys zs c_csym c_peratom fx fy fz 
1601 0.0198406 0.0262938 0.00482672 0.369203 -4.36378 -0.0910522 -0.909746 0.0427005 
1642 0.0442433 0.0492574 0.00243019 0.483817 -4.32645 0.675591 0.861053 0.847051 
1602 0.0445031 0.999647 0.00462489 0.135249 -4.331 0.424928 0.0276279 -0.244124 
2402 0.0470548 0.0250957 0.0310865 0.466882 -4.32957 -0.62048 -0.0308806 0.543055 
2441 0.0206936 0.04978 0.0336598 0.362035 -4.31885 0.596348 0.0307517 -0.765916 
2401 0.0209408 1.00025 0.0321191 0.254386 -4.36488 -0.221519 0.400733 0.572344 
1603 0.0685233 0.0237374 0.00219339 0.864022 -4.31038 1.13207 0.0992439 0.364373 
1644 0.0950528 0.0500309 -9.92706e-05 1.3147 -4.31379 0.563764 -0.655916 0.960542 
1604 0.097427 0.999989 0.00417197 0.469784 -4.31864 -0.740558 -0.223288 -0.32732 
2404 0.0968124 0.0244603 0.0293088 0.40431 -4.33632 -0.0915538 -0.152697 0.486725 
2443 0.0733628 0.049232 0.0304042 0.560968 -4.31355 -0.973773 0.0913097 -0.0872273 
1605 0.123048 0.0255455 0.00245052 0.678439 -4.31552 -0.670933 -0.952745 0.0462025 
1606 0.147494 0.999469 0.00223069 0.30916 -4.38001 0.319445 0.0758542 0.308347 
1607 0.172799 0.0255117 0.00292565 0.174043 -4.36863 -0.0411089 -0.481624 0.267611 
1646 0.147893 0.0489985 0.00370277 0.269888 -4.31878 -0.19483 0.420875 -0.272823 
2406 0.147007 0.0244245 0.0305214 0.307051 -4.35315 0.716588 -0.252915 0.362163 
2445 0.121557 0.048163 0.0309788 0.405238 -4.34342 0.113867 0.592156 -0.430787 
2447 0.173505 0.0508293 0.0296527 0.718262 -4.30211 0.364312 -0.933873 1.03386 
2405 0.122768 0.999015 0.029721 0.285051 -4.34055 -0.0922046 0.237271 0.615605 
808 0.198165 0.0241702 0.976105 0.352664 -4.37455 0.197208 0.450901 -0.624026 
1609 0.223955 0.0252212 0.00253263 0.223122 -4.33781 0.135356 0.51947 0.344609 
1648 0.199268 0.0494493 0.00316222 0.248197 -4.35077 -0.0843613 0.13342 -0.190192 
2408 0.19897 0.0238225 0.0320277 0.512489 -4.319 0.266744 1.087 0.0469314 
2449 0.22364 0.0511128 0.0323709 0.272667 -4.3223 -0.0328947 -0.244874 -0.433372 
811 0.273846 0.0030392 0.975314 0.941058 -4.30835 0.801332 -0.477664 0.531397 
851 0.274279 0.0498583 0.973823 0.663621 -4.29768 -0.128881 0.104751 -0.78752 
1611 0.275761 0.0269227 0.00461136 0.841741 -4.3465 -0.482317 -0.129384 -0.454574 
1650 0.249076 0.0524534 0.00234109 0.488548 -4.29694 -0.160108 -1.25602 0.416989 
2410 0.248899 0.0255289 0.0314362 0.274259 -4.34046 0.369432 0.656197 -0.496551 
2451 0.276042 0.0523292 0.030846 0.663395 -4.31224 -0.933036 -0.184176 -0.0212425 
2411 0.274004 0.00125062 0.0302298 0.423744 -4.35053 0.352031 -0.019753 0.526865 
812 0.298574 0.0263353 0.97257 0.714922 -4.27184 0.49665 -0.32734 0.6706 
814 0.350993 0.0281058 0.975658 0.428818 -4.33928 -0.367895 -0.176838 -0.176059 
853 0.325036 0.052784 0.971978 0.923386 -4.29505 0.217536 -0.0977266 0.134077 
1613 0.325527 0.0282637 0.000580203 0.95641 -4.37564 -0.326457 -0.248116 0.481131 
1614 0.350367 0.000819385 0.00541504 0.441183 -4.35063 0.0407448 0.301415 -0.825508 
1652 0.298519 0.0521926 0.000514438 0.705745 -4.31095 0.803313 -0.405934 0.116445 
1654 0.350407 0.0529444 0.00416475 0.494438 -4.30022 0.400231 -0.279227 -0.60572 
1612 0.301559 0.000885725 0.00483419 0.874149 -4.27104 -0.91739 1.06318 -1.00633 
2412 0.301366 0.0277127 0.0309536 0.486086 -4.35065 -0.327603 -0.175276 -0.281168 
2414 0.350256 0.0265763 0.0316119 0.244817 -4.32039 0.346671 -0.00343909 0.146503 
2453 0.326626 0.0507285 0.0311228 0.476181 -4.34134 -0.542843 0.433524 0.219395 
815 0.375657 0.00293071 0.977625 0.690621 -4.35342 -0.0433429 -0.898753 -0.101317 
816 0.402275 0.0263594 0.975941 0.300436 -4.333 -0.618733 -0.0120573 0.513268 
855 0.37554 0.0523257 0.973666 0.566875 -4.30942 0.196799 -0.0750673 1.22255 
1615 0.37449 0.0271299 0.00540169 0.553943 -4.32414 0.994553 0.0980897 -0.518456 
1656 0.4006 0.0522577 0.00371145 0.348642 -4.34641 -0.0717131 -0.624466 -0.10375 
2416 0.402001 0.0263959 0.0333006 0.397881 -4.33137 -0.575643 -0.423844 -0.587036 
2455 0.376182 0.0527677 0.0318497 0.275037 -4.36016 -0.347974 -0.351943 0.183451 
857 0.427293 0.050282 0.976892 0.210829 -4.38505 0.357206 0.34711 -0.293447 
1617 0.425372 0.0261195 0.00415115 0.4813 -4.34624 0.662134 -0.218242 -0.139865 
1658 0.452673 0.050756 0.00580044 0.209484 -4.37502 -0.040843 -0.195679 0.293911 
2418 0.450523 0.0250032 0.0331536 0.242625 -4.327 0.195329 0.691148 -0.316563 
2457 0.425159 0.0497754 0.0309607 0.651767 -4.31037 0.602285 0.874205 0.832223 
820 0.503082 0.024172 0.980123 0.186341 -4.40257 -0.184382 0.125231 -0.190979 
859 0.477619 0.0510461 0.979565 0.391455 -4.33433 -0.0686526 -0.111552 -0.187058 
1619 0.477138 0.0233169 0.00562594 0.548689 -4.32054 0.017229 0.623074 0.494779 
1621 0.528288 0.0222018 0.00701989 0.777071 -4.29957 -0.670315 0.846127 0.510169 
1660 0.500564 0.0495191 0.00663623 0.920913 -4.31431 1.11878 0.0406889 0.137278 
2420 0.502588 0.0237086 0.0352349 0.462013 -4.35994 -0.474292 0.500321 -0.113234 
2459 0.478259 0.0503485 0.0354008 0.475835 -4.34569 -0.502724 -0.540517 -0.414508 
2461 0.526499 0.0501643 0.0348975 0.534633 -4.33882 0.117417 -0.869328 0.457979 
1623 0.579153 0.0229468 0.0114426 0.212507 -4.35713 -0.220952 0.353397 0.173401 
1662 0.554761 0.0494687 0.0110751 0.560975 -4.3273 -0.501088 0.00323663 -0.341812 
2422 0.55178 0.0228819 0.0359297 0.467103 -4.34057 0.0781723 0.408378 0.712896 
2463 0.577819 0.0475474 0.0405639 0.656595 -4.3343 0.0516717 0.373722 -0.863919 
824 0.604822 0.0237178 0.985363 0.464829 -4.35118 -0.593186 0.745649 -0.378386 
1625 0.627268 0.0236316 0.0123061 0.537832 -4.35613 0.249705 -0.355794 0.406165 
1664 0.603586 0.050616 0.0122964 0.825124 -4.32211 -0.115407 -0.922319 0.311778 
1624 0.601908 0.996648 0.0106696 0.652052 -4.30386 0.642129 0.81015 0.787221 
2424 0.602939 0.0212652 0.0411767 0.607307 -4.31046 0.375496 0.604539 -1.01461 
2465 0.626927 0.0473822 0.0414024 0.325284 -4.35071 -0.197578 0.103329 0.327924 
2425 0.627808 0.997264 0.0397166 0.155766 -4.29338 -0.231021 0.437926 0.497132 
1626 0.651493 0.99646 0.0143291 0.358421 -4.29103 0.782364 0.504531 -0.865812 
1627 0.677824 0.0226571 0.0161484 0.287098 -4.28488 -0.503137 -0.3008 -0.122755 
1628 0.70351 0.996252 0.0144963 0.405723 -4.35413 -0.586336 0.211457 -0.10953 
1666 0.652517 0.0475894 0.0153925 0.224527 -4.33273 -0.31268 -0.0691034 0.435781 
1668 0.702174 0.0468357 0.0155266 0.38243 -4.32679 -0.512199 0.235611 0.180169 
2426 0.651884 0.0220634 0.04265 0.186828 -4.38394 -0.295527 0.0632349 -0.540843 
2428 0.700867 0.0229002 0.0441048 0.371646 -4.3072 0.474256 -0.375216 -0.426532 
2467 0.677004 0.0469439 0.0425861 0.240426 -4.38344 -0.227387 0.260883 0.522915 
2427 0.677642 0.998655 0.0412005 0.636464 -4.33998 -0.47784 -1.23287 -0.0927881 
1629 0.726228 0.0223318 0.0159371 0.357342 -4.35561 -0.677019 -0.269038 -0.360831 
1670 0.748454 0.0472945 0.0161305 0.167936 -4.35232 0.293977 0.0579634 -0.271025 
2430 0.750896 0.022624 0.042 0.229685 -4.32215 -0.407241 -0.259185 0.930399 
2469 0.724679 0.0461637 0.0448369 0.48334 -4.32371 0.480506 0.508584 -0.365783 
1631 0.773346 0.0232916 0.0142198 0.250937 -4.34889 0.310466 -0.206664 -0.237841 
1672 0.797531 0.0488151 0.0136168 0.320681 -4.30742 0.519078 -0.257621 0.425904 
2432 0.799453 0.0249903 0.0415091 0.472853 -4.36605 -0.295276 -0.852031 -0.314091 
2471 0.774675 0.0471212 0.0421581 0.212788 -4.35312 -0.515896 0.499785 0.0330136 
1633 0.824774 0.0234796 0.0130474 0.603021 -4.35053 0.0566918 0.720429 -0.468353 
1635 0.873339 0.0272565 0.0110315 0.444931 -4.31652 0.495037 -0.948744 0.0910145 
1674 0.849216 0.0487423 0.0122399 0.3879 -4.316 -0.480809 0.439426 0.447649 
2434 0.849689 0.0261347 0.0419151 0.736686 -4.29115 0.219275 -1.34115 -0.568778 
2473 0.824389 0.0471309 0.0404095 0.379645 -4.35555 -0.24404 0.67712 0.25899 
2475 0.874354 0.0492714 0.0411845 0.365084 -4.35948 -0.0436613 0.57557 0.0469578 
1637 0.922373 0.0243259 0.00581032 0.937813 -4.3099 -0.284764 0.105227 1.04494 
1676 0.898274 0.0524366 0.0101413 0.713354 -4.327 -0.161424 -0.753428 -0.29424 
1636 0.897791 1.00027 0.0107015 0.0942112 -4.35575 -0.237494 -0.163931 -0.180226 
2436 0.89957 0.0272432 0.0362412 1.07793 -4.31609 -0.0427005 -0.949554 0.729078 
2477 0.924213 0.0496506 0.0347933 0.527361 -4.32228 -0.314937 -0.127606 0.663238 
1600 0.996204 -0.00157287 0.00479851 0.571311 -4.32664 -0.18582 1.06594 0.346693 
1640 0.996212 0.0510242 0.00449472 0.147709 -4.32986 -0.196215 0.0490016 0.395946 
1639 0.971661 0.0244295 0.00595926 0.110803 -4.35307 -0.123414 0.2687 -0.0684077 
1678 0.946559 0.0491449 0.00623387 0.336068 -4.35031 0.761326 0.175337 0.392447 
2400 0.994543 0.0256498 0.0333619 0.628422 -4.28062 1.17804 -0.951835 -0.493103 
2438 0.947212 0.0232311 0.0356772 0.491734 -4.34811 0.416191 0.895475 -0.621387 
2479 0.971957 0.0508256 0.0335677 0.298787 -4.36108 -0.314247 -0.147407 -0.398599 
1641 0.0210861 0.0755871 0.00299264 0.28376 -4.30676 -0.540315 0.508801 0.623213 
1682 0.0466851 0.0993759 0.00391941 0.68585 -4.29292 -0.315195 1.02447 0.18635 
1680 0.995632 0.103098 0.00642936 0.833268 -4.27851 0.625077 -0.772211 -0.18059 
2442 0.0471956 0.0751251 0.0320916 0.237223 -4.35753 -0.0290696 -0.514771 -0.023118 
2481 0.0237197 0.101727 0.0342029 0.964873 -4.26994 -0.668779 -1.36996 -0.0597675 
1643 0.0711109 0.0750721 0.0020222 0.389985 -4.35053 -0.380669 -0.0246883 0.661344 
1684 0.0956495 0.101287 0.00421593 0.499461 -4.38796 0.15567 0.325949 0.245785 
2444 0.0965798 0.0741529 0.0293731 0.457134 -4.33956 -0.0348081 0.256082 0.659076 
2483 0.0716074 0.100721 0.033843 0.313623 -4.34584 0.0968415 -0.428391 -0.582939 
1645 0.120012 0.075308 0.00216585 1.07618 -4.28958 1.23939 -0.626091 0.802131 
1647 0.17393 0.0744737 0.00280733 0.311564 -4.33134 0.138586 0.0697404 0.0961044 
1686 0.14972 0.0998537 0.00516492 0.911181 -4.31348 -0.371394 -0.313268 -0.285734 
2446 0.147472 0.0731326 0.029308 0.699278 -4.33195 0.0437133 0.576886 0.495388 
2485 0.122345 0.0992798 0.0318817 0.326167 -4.32636 -0.686558 -0.239251 -0.895999 
2487 0.174804 0.0986501 0.03234 0.858279 -4.32627 -0.769775 0.430577 0.118042 
889 0.221844 0.0999972 0.975026 1.53484 -4.27253 0.329067 -0.102447 -0.504317 
1649 0.224095 0.0752128 1.00266 0.157436 -4.34329 -0.392387 0.0837717 -0.175164 
1688 0.198328 0.0993517 0.00433361 0.459618 -4.32634 -0.0785431 0.16466 -0.822886 
2448 0.198367 0.074421 0.0310593 0.270748 -4.2965 0.495739 0.208813 0.777488 
2489 0.224449 0.100288 0.031139 0.139671 -4.37639 -0.242547 0.0691571 -0.199827 
850 0.248115 0.0749614 0.972769 1.20939 -4.31246 -0.338603 0.506515 -0.687545 
891 0.273479 0.101371 0.970743 4.67565 -4.23124 0.482571 -0.47572 -0.402839 
1651 0.27315 0.0749202 -0.00137224 0.850118 -4.28887 0.730362 1.00084 0.805022 
1690 0.249193 0.101425 1.00116 0.346059 -4.35198 0.00286959 -0.256761 0.295784 
2450 0.249531 0.0752532 0.0298278 0.202731 -4.32278 -0.0847561 0.327582 0.503073 
2491 0.275903 0.0991649 0.0286346 0.504697 -4.34082 -0.28892 0.0790339 0.190316 
852 0.298398 0.075092 0.969713 4.39814 -4.18386 -0.0486514 -0.127538 0.850776 
854 0.350368 0.0768953 0.97365 0.744687 -4.29345 0.270796 -0.47762 -0.0739839 
893 0.326704 0.100325 0.973005 1.11532 -4.16053 0.479912 -0.169468 -0.137741 
1653 0.324593 0.0744302 0.00242557 0.676466 -4.27142 0.454069 0.690205 -0.569064 
1692 0.301298 0.0995257 -0.00119303 0.739447 -4.34302 -0.666429 0.323326 0.500906 
1694 0.351156 0.101423 0.00254466 0.231957 -4.3488 -0.477231 -0.269399 -0.355445 
2452 0.300714 0.0751246 0.0284593 0.502955 -4.27685 -0.288913 0.340032 0.879423 
2454 0.349912 0.0778318 0.0312538 0.463501 -4.30884 0.388082 -0.874477 0.400982 
2493 0.325383 0.0995318 0.0311849 0.26789 -4.32146 -0.327164 0.811563 -0.301839 
856 0.40342 0.0761178 0.975539 0.54459 -4.339 -0.637114 0.164003 -0.0599607 
895 0.376409 0.100055 0.974363 0.25907 -4.35604 -0.456787 0.192474 0.325837 
1655 0.376298 0.075878 0.00282095 0.199659 -4.3143 -0.2858 0.152103 -0.00954088 
1696 0.399872 0.100641 0.00328903 0.30109 -4.3327 0.627428 -0.0105965 -0.0707935 
2456 0.401525 0.0761427 0.0329774 0.4369 -4.34278 -0.23304 -0.0632529 -0.517689 
2495 0.3745 0.101261 0.0299652 0.382832 -4.34195 0.582058 -0.271337 0.386136 
858 0.452973 0.0759887 0.977471 0.116251 -4.37035 -0.234875 -0.0789627 0.41667 
897 0.428436 0.100701 0.974079 0.763245 -4.34042 -0.633247 0.342381 1.08357 
1657 0.426678 0.075094 0.00296879 0.361601 -4.32816 0.194897 0.600733 0.648077 
1698 0.452631 0.101395 0.00519079 0.207303 -4.35591 -0.280331 -0.309216 0.239061 
2458 0.450728 0.0758626 0.0341668 0.368014 -4.35147 0.303971 -0.186527 -0.504554 
2497 0.425423 0.100007 0.0314356 0.258693 -4.33687 0.303575 0.536981 0.112378 
899 0.478168 0.100209 0.977326 0.169471 -4.39151 0.508696 0.0289188 0.355045 
901 0.527998 0.0997718 0.979981 0.387592 -4.36425 0.517465 -0.289072 -0.582046 
1659 0.477872 0.0757076 0.00655581 0.0982101 -4.33613 0.0367646 0.217302 -0.028009 
1661 0.528206 0.0744462 0.00888939 0.216703 -4.33027 0.113973 0.310126 -0.539125 
1700 0.504466 0.099579 0.00635907 0.267299 -4.29835 -0.855933 -0.0207166 0.14929 
2460 0.50294 0.074671 0.0360478 0.16314 -4.33714 -0.293295 0.489417 -0.103626 
2499 0.478251 0.100062 0.0341552 0.209869 -4.34479 -0.222622 0.367065 0.188147 
2501 0.527622 0.100473 0.0366536 0.159726 -4.36661 0.0483126 -0.309712 -0.291397 
862 0.554781 0.075276 0.980993 0.382707 -4.36098 -0.283803 -0.219264 1.11348 
903 0.580909 0.0971878 0.980942 0.81191 -4.30113 -0.456876 0.71259 1.08296 
1663 0.579174 0.075601 0.0129221 0.71814 -4.34179 -0.130962 -0.617451 -0.48285 
1702 0.554435 0.100469 0.00971156 0.252891 -4.34744 -0.345853 -0.51936 -0.468742 
2462 0.552368 0.0751752 0.0371291 0.178479 -4.35993 0.0451221 -0.0501178 0.22752 
2503 0.57854 0.100904 0.038641 0.490483 -4.32653 -0.265854 -0.363225 -0.0857889 
864 0.605541 0.0729733 0.984731 0.313064 -4.35929 -0.121942 -0.1198 -0.762937 
905 0.630655 0.0963971 0.983824 0.745437 -4.37329 -0.116756 0.598939 -0.122351 
1665 0.629551 0.0740279 0.0148367 0.514572 -4.36427 -0.369272 -0.0309189 -0.0016241 
1704 0.604369 0.0986619 0.0105438 0.361461 -4.33776 0.113321 -0.406998 0.802436 
2464 0.603617 0.0734211 0.0421307 0.577405 -4.32599 0.189302 0.636396 -0.906291 
2505 0.628863 0.0990933 0.0426778 0.476103 -4.31987 -0.996121 -0.155054 -0.461678 
1667 0.676464 0.0717972 0.0164045 0.35687 -4.35795 -0.171184 0.57065 0.140933 
1706 0.653814 0.0993568 0.013818 0.747747 -4.2784 -0.44109 -1.19951 0.927317 
1708 0.698166 0.0986624 0.0181809 0.487767 -4.28648 0.572987 -0.249125 -0.454637 
2466 0.650454 0.0727345 0.0456303 1.39518 -4.25188 0.537015 -0.15442 -1.81333 
2468 0.701333 0.0718393 0.0431289 0.315758 -4.32802 -0.284018 0.0470096 0.407672 
2507 0.676236 0.09794 0.0445545 0.359355 -4.32272 -0.557301 -0.104909 -0.135138 
1669 0.725228 0.0713736 0.0174546 0.574224 -4.27558 -0.673677 0.645338 -0.181298 
1710 0.747598 0.0993725 0.0160278 0.53293 -4.3323 -0.0957141 -0.498963 0.887592 
2470 0.749407 0.0730935 0.0452662 0.499818 -4.33905 -0.18143 -0.390454 -0.809412 
2509 0.723664 0.098292 0.043938 0.358739 -4.36845 0.11321 -0.373154 0.320662 
1671 0.772898 0.0727428 0.0156302 0.145722 -4.36502 -0.64256 0.362473 0.613149 
1712 0.797414 0.098259 0.0160851 0.105712 -4.37727 0.144942 -0.366306 0.115693 
2472 0.799705 0.0714059 0.0413308 0.467465 -4.37351 -0.649541 0.452812 0.383165 
2511 0.772771 0.0963713 0.0446775 0.357609 -4.35203 0.595351 0.27862 -0.380706 
1673 0.823281 0.0717234 0.0137096 0.48366 -4.33013 -0.243209 0.70763 0.257959 
1675 0.872773 0.0736285 0.0123912 0.397591 -4.36713 -0.167381 0.495502 0.593631 
1714 0.84612 0.0985123 0.0157832 0.65567 -4.33096 0.431884 -0.154914 -0.840152 
2474 0.847782 0.0735471 0.0414019 0.217124 -4.36836 0.691483 -1.05872 0.0454072 
2513 0.82376 0.0953076 0.0429421 0.742436 -4.28263 -0.83703 1.17455 -0.302681 
2515 0.871575 0.0980208 0.0401904 0.552103 -4.31877 1.51037 0.044202 0.269995 
1677 0.923403 0.0761208 0.00892167 0.441425 -4.30402 -0.73112 -0.310023 -0.353736 
1716 0.897731 0.0991991 0.0111357 0.170216 -4.32626 0.319794 0.0407827 0.2978 
2476 0.899128 0.0747633 0.0392054 0.177577 -4.37733 -0.145301 -0.192315 0.0434967 
2517 0.923399 0.100109 0.0367271 0.270428 -4.33439 0.0411906 -0.191105 0.772847 
1679 0.972798 0.0760391 0.00564683 0.572275 -4.32031 -0.490005 -0.316406 0.579739 
1718 0.946066 0.100496 0.00837956 0.128125 -4.34878 0.390663 0.372954 -0.282384 
2440 0.996647 0.0763246 0.0343211 0.435433 -4.344 0.413919 -0.0371057 -0.497496 
2478 0.946628 0.0741151 0.0348884 0.264913 -4.30233 0.5778 0.403133 0.439675 
2519 0.969604 0.100035 0.0360686 0.659091 -4.36799 0.626999 -0.308695 -0.45162 
1681 0.0223267 0.126307 0.00876334 0.945476 -4.31315 0.044274 0.230519 -0.853166 
1721 0.021496 0.1752 0.00950894 0.372175 -4.27235 0.256912 0.237697 -0.376474 
1722 0.0471056 0.152591 0.0075858 0.445457 -4.31712 0.0302622 -0.518804 -0.372086 
2482 0.0475971 0.12552 0.0351955 0.219879 -4.32947 0.0727807 0.269879 -0.182127 
2521 0.0226141 0.151367 0.0359461 0.441127 -4.31519 -0.248238 -1.30002 -0.097769 
2522 0.0469083 0.175166 0.0372501 0.248647 -4.34216 0.154074 0.262585 -0.293821 
2520 0.996644 0.173969 0.0368405 0.191131 -4.35903 -0.283494 0.226472 0.397271 
1683 0.0703608 0.127118 0.00457607 0.59992 -4.3042 -0.07395 -0.623399 0.183239 
1723 0.0716654 0.176157 0.00843801 0.458208 -4.31563 0.213154 -0.505677 -0.187107 
1724 0.0958799 0.148507 0.00614166 0.867427 -4.32077 0.0977505 0.821416 -0.581755 
2484 0.0969675 0.126246 0.0334404 0.406961 -4.3148 -0.525025 -0.964392 0.0400507 
2523 0.0722648 0.151322 0.034735 0.254217 -4.34519 -0.08619 -0.874727 0.1705 
2524 0.0969811 0.175571 0.0356133 0.377282 -4.36362 0.25487 -0.0457257 -1.11133 
1685 0.123136 0.12481 0.00549113 0.330002 -4.33211 -0.521844 0.149757 -0.6651 
1687 0.173064 0.124344 0.00597898 0.815028 -4.27963 -0.138996 0.346183 -0.756826 
1725 0.120821 0.174083 0.00444694 0.812267 -4.29978 -0.524146 0.645736 0.970669 
1726 0.14656 0.150721 0.00529505 0.203764 -4.36202 0.24047 -0.563293 -0.44791 
1727 0.170801 0.175954 0.00547103 0.111249 -4.35291 0.260793 -0.329121 0.20507 
2486 0.145894 0.12464 0.0319463 0.315491 -4.29054 0.724037 0.203604 -0.162596 
2525 0.12065 0.150488 0.0319978 0.492047 -4.3304 0.358642 -0.262732 0.253596 
2527 0.172256 0.14891 0.0326091 0.245854 -4.34088 -0.229496 0.671678 -0.453508 
2526 0.144614 0.174298 0.0327004 0.531536 -4.34561 0.774105 0.103759 0.0961375 
1689 0.22361 0.125453 0.000959845 0.480907 -4.31679 -0.15283 -0.0134935 0.192773 
1728 0.197699 0.151236 0.00520766 0.338663 -4.33152 0.0339331 -0.239441 -0.539737 
1729 0.224019 0.176631 0.00585642 0.520998 -4.33617 0.0788073 -0.39411 -0.460506 
2488 0.199463 0.125818 0.0309069 0.519045 -4.35173 -0.0887001 -0.223334 0.403562 
2528 0.198214 0.175342 0.0319395 0.12999 -4.33643 -0.0936843 -0.130187 0.0949372 
2529 0.225428 0.149531 0.0301141 0.630425 -4.33138 -0.357832 0.190614 0.511788 
931 0.275427 0.151785 0.97586 0.668235 -4.3543 0.000835564 -0.565326 -0.490346 
1691 0.275253 0.125472 1.00122 0.258885 -4.33583 0.0880118 -0.462414 -0.277138 
1730 0.249041 0.149102 0.000245064 1.09302 -4.35052 -0.226598 0.275615 0.366046 
1731 0.273913 0.174855 0.00369531 0.322317 -4.33464 0.430008 0.622313 -0.244565 
2490 0.250229 0.125308 0.0322465 0.764138 -4.32512 -0.213408 -0.368185 -0.959488 
2530 0.250392 0.174449 0.0323896 0.332215 -4.34264 -0.501369 0.0407193 -0.318828 
2531 0.274506 0.149835 0.0280905 0.854309 -4.35427 0.206828 -0.16209 0.808099 
892 0.301756 0.125552 0.971843 4.09304 -4.35329 -0.239221 0.289419 0.085404 
932 0.299297 0.175831 0.974955 0.303302 -4.35453 -0.0518681 0.861233 0.339878 
1693 0.32591 0.12607 0.00253782 0.201518 -4.3354 -0.0164721 -0.32273 -0.0387875 
1732 0.301486 0.149913 0.00323546 0.46534 -4.34771 -0.462318 0.281233 -0.240243 
1733 0.325778 0.1764 0.00385935 0.167122 -4.37505 -0.121353 0.0621805 -0.365456 
1734 0.351493 0.151334 0.00288589 0.410282 -4.35058 -0.700169 0.197924 -0.436207 
2492 0.299753 0.12488 0.031164 0.424232 -4.32808 0.639843 -0.140614 -0.597285 
2494 0.35043 0.125313 0.0314066 0.18982 -4.36912 0.0354157 0.344373 -0.0384609 
2532 0.300704 0.174772 0.0311292 0.137548 -4.36034 -0.155248 0.389332 -0.0642272 
2533 0.326617 0.150749 0.0304103 0.228151 -4.35505 -0.445048 -0.140687 0.261235 
2534 0.350472 0.175866 0.0310008 0.234089 -4.34751 0.101535 0.312678 0.297084 
935 0.375903 0.152237 0.975002 0.329711 -4.36364 -0.430998 0.135574 -0.193544 
936 0.402211 0.178038 0.976325 0.40846 -4.35767 -0.19729 -0.394794 0.119967 
1695 0.374392 0.127506 0.00194215 0.522137 -4.31688 0.251308 -0.721679 0.35942 
1735 0.373526 0.178146 0.00148113 1.28546 -4.34159 0.645136 -0.481768 0.681439 
1736 0.399304 0.152345 0.00406986 0.452299 -4.38393 0.303135 -0.171818 -0.241531 
2496 0.400042 0.125321 0.0303707 0.219349 -4.38617 -0.0684204 0.276646 0.00146858 
2535 0.375073 0.152308 0.032667 0.550768 -4.34202 -0.0267686 -0.658359 -0.717208 
2536 0.400773 0.175771 0.0322407 0.216865 -4.31209 0.266624 0.189421 -0.0896639 
898 0.452703 0.125816 0.977586 0.21699 -4.3753 0.429886 0.164235 -0.192105 
937 0.426493 0.15111 0.976027 0.28365 -4.37552 0.210619 -0.137131 0.327497 
1697 0.426141 0.126332 0.00357631 0.190924 -4.35613 -0.0479964 -0.249126 -0.0403921 
1737 0.427472 0.174542 0.00389762 0.481448 -4.32559 -0.00167956 0.429168 0.790285 
1738 0.453847 0.150076 0.00534228 0.293602 -4.34269 -0.488415 0.367878 -0.0748837 
2498 0.45087 0.126634 0.0336084 0.354586 -4.31931 0.514414 -0.607022 -0.342367 
2537 0.425462 0.149408 0.0320559 0.344196 -4.33831 0.269118 0.679176 -0.0583103 
2538 0.453227 0.174776 0.0343832 0.266283 -4.32562 -0.841581 0.163569 -0.593052 
939 0.479666 0.151836 0.977549 0.260379 -4.36048 -0.0419252 -0.0461464 0.766904 
940 0.505705 0.175599 0.979095 0.247278 -4.37019 -0.604101 -0.105399 0.305555 
941 0.531619 0.150631 0.980026 0.686533 -4.34667 -0.920925 -0.242821 -0.325935 
1699 0.478244 0.125424 0.00521183 0.208287 -4.339 0.497931 0.115237 0.425255 
1701 0.528133 0.124482 0.00653083 0.53976 -4.3518 0.237518 0.390473 0.445137 
1740 0.505593 0.15173 0.00799575 0.651287 -4.28469 -1.00874 -1.1796 -0.283918 
1741 0.528175 0.174548 0.00740684 0.537336 -4.31158 0.816424 0.665862 0.557393 
2500 0.503628 0.124453 0.0350652 0.283985 -4.34886 -0.467973 0.62232 -0.152108 
2539 0.477542 0.150766 0.0339967 0.199731 -4.32892 0.614772 -0.681447 0.182538 
2540 0.503076 0.17534 0.0357381 0.0957893 -4.35934 0.337152 0.246528 0.373575 
2541 0.529404 0.149577 0.0369943 0.445053 -4.33634 -0.583141 0.103924 -0.675578 
902 0.554971 0.123014 0.981124 0.433839 -4.36193 0.113633 0.535804 -0.259441 
943 0.580979 0.149885 0.9805 0.571264 -4.34947 -0.683851 -0.743628 0.481062 
1703 0.580569 0.124034 0.00931425 0.371651 -4.3462 -0.651539 -0.137673 -0.231969 
1742 0.554226 0.149057 0.00751151 0.196956 -4.37497 -0.0588189 -0.168414 0.37823 
1743 0.578293 0.173623 0.00963158 0.34171 -4.33391 1.1098 0.0913727 0.381953 
2502 0.552153 0.124195 0.036363 0.24807 -4.33836 0.340176 0.11321 0.231674 
2542 0.552204 0.174829 0.0351206 0.621382 -4.32799 0.231933 -0.652823 0.685054 
2543 0.577 0.148151 0.0371278 0.240536 -4.39134 0.335327 0.249384 0.421911 
904 0.605988 0.121623 0.983012 0.459282 -4.34403 -0.29828 0.823439 0.0787841 
1705 0.629239 0.121743 0.0134913 0.504066 -4.36834 -0.284794 0.758373 -0.347811 
1744 0.604394 0.147817 0.0115002 0.211136 -4.33419 -0.385953 0.193788 0.196136 
1745 0.626745 0.173461 0.0166875 0.291115 -4.23575 -0.419662 0.468734 -0.436933 
2504 0.603507 0.123257 0.0396964 0.195838 -4.32671 -0.376386 -0.0934293 0.0176813 
2544 0.602593 0.173886 0.040789 0.183535 -4.29573 -0.990559 0.102482 0.120822 
2545 0.625376 0.148015 0.0430453 0.287605 -4.27599 0.11271 0.0784277 -0.443598 
1707 0.67419 0.12368 0.0175614 0.372932 -4.25675 0.809435 -0.0621472 0.36178 
1746 0.650585 0.148838 0.0191177 0.704235 -4.28687 -0.272543 -0.0942735 -1.03309 
1747 0.674595 0.174567 0.0199444 0.112653 -4.33544 -0.80887 0.234651 0.288351 
1748 0.697802 0.148421 0.0202498 0.445164 -4.37094 0.915428 0.145109 -0.195127 
2506 0.651518 0.124556 0.0436961 0.381651 -4.30747 -0.482609 -0.726006 0.3468 
2508 0.697963 0.124127 0.0475773 0.68312 -4.31567 0.890537 -0.203423 -0.63652 
2546 0.649216 0.173417 0.0451324 0.199429 -4.37446 0.292657 0.457505 0.107682 
2547 0.674816 0.149479 0.0458601 0.272128 -4.3361 0.0230115 0.167687 0.402432 
2548 0.700212 0.175024 0.0460506 0.545853 -4.32369 -0.983894 -0.318262 0.899977 
1709 0.72303 0.124249 0.0199251 0.355792 -4.34578 -0.378748 -0.0346139 -0.188412 
1749 0.722429 0.174201 0.0196704 0.244376 -4.2999 0.843796 -0.171851 0.230695 
1750 0.747178 0.146992 0.0178711 0.68379 -4.32803 0.233174 0.660009 1.00859 
2510 0.749104 0.121888 0.0455626 0.342595 -4.33759 -0.130424 0.492978 -0.091594 
2549 0.723125 0.150049 0.0476267 0.623052 -4.33539 0.276314 -0.878485 -0.545285 
2550 0.748717 0.172166 0.0460435 0.450925 -4.36749 -0.385135 0.930483 -0.152481 
1711 0.772069 0.123356 0.0176432 0.0888199 -4.36038 -0.0235872 -0.0749851 0.0828424 
1751 0.772658 0.173825 0.0191384 0.219554 -4.30947 -0.67084 0.142459 -0.126774 
1752 0.796993 0.147873 0.0173421 0.275872 -4.37102 -0.152374 0.509064 0.198891 
1713 0.821941 0.122704 0.0164756 0.156322 -4.33781 0.237382 0.0614531 -0.19137 
2512 0.798546 0.121931 0.0428958 0.206741 -4.32556 -0.318007 -0.128734 0.298068 
2551 0.773389 0.147904 0.0449611 0.215436 -4.2708 -0.146439 -0.153179 -0.701952 
2552 0.796716 0.176184 0.0434642 1.25963 -4.28613 0.321243 -1.72701 0.36561 
1715 0.873706 0.122241 0.0125532 0.682954 -4.3024 -0.708759 0.900903 0.414269 
1753 0.821762 0.175289 0.016872 0.20804 -4.34081 -0.124376 -0.782028 -0.356633 
1754 0.847977 0.149009 0.0154398 0.137585 -4.37583 0.0149133 -0.321087 -0.0718049 
1755 0.872815 0.174495 0.0160054 0.666567 -4.32156 -0.23893 0.0653135 -1.0463 
2514 0.849195 0.121982 0.042309 0.553763 -4.3221 -0.795857 1.25141 -0.216072 
2553 0.823279 0.149539 0.0414827 0.500716 -4.34403 -0.356546 -0.645248 0.707145 
2554 0.847778 0.174104 0.0420203 0.151727 -4.35773 0.15062 0.0598579 0.23968 
2555 0.873437 0.148537 0.0418126 0.262997 -4.35992 -0.265842 -0.437515 -0.405209 
1717 0.921011 0.125365 0.00952728 0.198969 -4.34716 0.336976 -0.383233 -0.21546 
1756 0.89585 0.148332 0.0123177 0.448313 -4.32609 0.853742 0.677539 -0.127703 
1757 0.921749 0.174583 0.0106502 0.233794 -4.35241 -0.339879 -0.609879 -0.0458608 
2516 0.898768 0.123951 0.0378941 0.508446 -4.32921 -0.543561 -0.181487 1.23835 
2556 0.897574 0.173619 0.0411812 0.155157 -4.30569 -0.268723 0.0551489 -0.0357769 
2557 0.922037 0.150396 0.040075 0.409806 -4.37551 -0.00911051 -0.340905 -0.611447 
1720 0.996258 0.15071 0.00847514 0.273112 -4.33282 -0.0571979 0.208424 0.759492 
1719 0.969877 0.125884 0.00872757 0.430386 -4.34259 0.371066 -0.344544 -0.29286 
1758 0.9443 0.149049 0.00932747 0.516851 -4.32151 0.678943 0.502568 -0.0878901 
1759 0.969821 0.175588 0.00996177 0.43034 -4.35066 0.34986 -0.594838 -0.579811 
2480 0.996523 0.123876 0.0369462 0.537739 -4.33773 0.0414024 0.399745 -1.11813 
2518 0.946329 0.126236 0.0376269 0.350749 -4.35035 -0.314718 -0.560431 0.0936843 
2558 0.947945 0.173466 0.0375867 0.549108 -4.34712 -0.704482 0.246469 0.569152 
2559 0.970992 0.149304 0.0358848 0.294982 -4.3368 0.348994 0.185757 0.463909 
1761 0.0217687 0.224444 0.00959762 0.252489 -4.34022 -0.229095 -0.45868 0.147587 
1762 0.0465764 0.199327 0.00909782 0.217137 -4.38255 -0.413817 0.310733 -0.0567792 
2561 0.0231054 0.200053 0.0394184 0.946287 -4.35951 -0.832379 -0.270329 -0.819725 
2562 0.0461033 0.225434 0.0385185 0.224199 -4.34527 0.36905 -0.0445483 -0.211092 
2560 0.995786 0.223374 0.036356 0.828487 -4.30182 0.577179 -0.169935 0.957431 
964 0.0940511 0.22737 0.980399 0.436149 -4.37778 -0.0314295 -0.27894 0.477512 
1763 0.0710335 0.224666 0.0101781 0.306241 -4.36297 -0.510992 0.63621 -0.849808 
1764 0.0970061 0.201278 0.00835657 0.40955 -4.34847 -0.226705 -0.431712 -0.313474 
2563 0.0723217 0.200627 0.0351117 0.335666 -4.34327 -0.523635 -0.509083 0.879494 
2564 0.0963249 0.224365 0.0364883 0.223406 -4.34715 0.108157 0.606348 0.458889 
967 0.171479 0.20105 0.9806 0.734917 -4.33154 -0.418414 -0.0960057 -1.13175 
1765 0.118654 0.227575 0.00935331 0.785777 -4.30647 0.938008 -0.419951 -0.771731 
1766 0.145063 0.200354 0.0065325 0.289001 -4.34768 0.114443 0.701751 -0.076281 
1767 0.172697 0.226424 0.00673905 0.391022 -4.33709 -1.02143 0.025631 0.120161 
2565 0.122709 0.200236 0.0344581 0.445937 -4.35035 -0.660404 -0.0404219 -0.198833 
2566 0.145164 0.226311 0.0346295 0.298232 -4.3656 0.744443 -0.149112 -0.148064 
2567 0.170507 0.199716 0.0328706 0.293733 -4.35308 0.429244 0.526231 0.0203692 
968 0.196195 0.225429 0.978654 0.27266 -4.38465 0.345193 0.0727458 -0.467691 
969 0.222198 0.200258 0.977714 0.231603 -4.34427 0.248639 0.333924 -0.427525 
1768 0.196594 0.201214 0.00631004 0.310807 -4.34028 0.557587 -0.55777 0.0501756 
1769 0.223221 0.224962 0.00503608 0.232608 -4.3714 0.00609274 0.358058 0.187132 
2568 0.19793 0.225573 0.0323104 0.183577 -4.3233 -0.205313 -0.116837 0.50351 
2569 0.224526 0.200638 0.032797 0.204041 -4.33189 -0.271651 -0.128333 0.157809 
970 0.248121 0.227515 0.976534 0.347572 -4.37365 0.0614721 -0.874425 0.0733227 
971 0.274481 0.202216 0.975976 0.187926 -4.36072 -0.156307 -0.438801 0.406671 
1770 0.249337 0.200725 0.00684792 0.557742 -4.29192 0.123031 0.186208 -1.31674 
1771 0.274817 0.226106 0.00576545 0.163495 -4.36443 -0.170183 0.129962 -0.650938 
2570 0.250523 0.224751 0.0333038 0.562648 -4.32748 -0.879666 0.650424 -0.00071066 
2571 0.275146 0.199722 0.031829 0.168326 -4.36118 0.0833957 0.00645835 0.432552 
973 0.323975 0.201867 0.974745 0.26758 -4.32355 -0.0784391 0.443782 0.0835501 
974 0.349382 0.227829 0.976908 0.451946 -4.30873 -1.00234 -0.307505 -0.543696 
1772 0.300323 0.200765 0.00464492 0.252294 -4.34086 -0.53294 -0.14656 -0.384208 