ITEM: TIMESTEP
3250
ITEM: NUMBER OF ATOMS
28567
ITEM: BOX BOUNDS pp pp pp
-2.0321808976009805e+00 7.2432180897601214e+01
-6.7469301093250067e-01 7.1074693010932236e+01
5.7365913931939989e+00 6.4663408606806314e+01
ITEM: ATOMS id xs ys zs c_csym c_peratom fx fy fz 
1601 0.0314571 0.0245933 0.0032611 0.358256 -4.31507 0.63001 -0.557948 -0.827167 
1642 0.0560973 0.0491671 0.00197892 0.123323 -4.38336 -0.409809 -0.0368252 -0.449431 
2402 0.0561713 0.0253555 0.0303914 0.213476 -4.31422 -0.0527464 -0.904759 0.0937863 
2441 0.0323425 0.0488748 0.0299291 0.242192 -4.29666 -0.22229 1.13397 0.170007 
3201 0.0326717 0.0253898 0.0580008 0.143637 -4.35421 -0.198742 -0.404093 0.324616 
3242 0.05628 0.0509094 0.0571109 0.386047 -4.32257 0.642786 0.200315 0.0190202 
2400 0.00868388 0.0246427 0.0298613 0.222558 -4.32915 -0.63636 -0.273706 0.521775 
3240 0.00879128 0.0508128 0.0595521 0.375252 -4.35259 -0.0406131 -0.235071 -0.594567 
2401 0.0303274 -0.00247202 0.031518 0.967149 -4.30468 0.891645 1.06633 -0.445694 
3202 0.056558 0.999422 0.0590428 0.183791 -4.36047 0.20225 0.113131 -0.499855 
3200 0.00843978 0.999623 0.0599879 0.252751 -4.35917 -0.326046 0.261922 -0.0897837 
1603 0.0804438 0.0250592 0.00307204 0.559248 -4.32838 0.265265 -0.664968 -0.973759 
1644 0.105457 0.0491456 0.00259201 4.77688 -4.23473 -0.0698509 -0.792064 -0.32391 
2404 0.107455 0.0233304 0.028451 1.17325 -4.28901 -0.461675 0.756785 0.0864221 
2443 0.081003 0.0486225 0.0296484 0.755918 -4.24712 -0.0157049 0.432513 0.412349 
3203 0.0818903 0.0245136 0.0577886 0.215729 -4.29426 -0.119132 0.731287 -0.101717 
3244 0.10748 0.0523325 0.053817 0.67853 -4.32939 0.647682 -0.714618 -0.197755 
1604 0.105782 1.00045 -0.00191429 0.370214 -4.35304 -0.259663 -0.443584 0.457917 
3204 0.105784 0.000782916 0.0580204 0.2941 -4.26327 0.325059 -0.0924232 -0.0306934 
1605 0.131495 0.0234926 0.998434 1.12421 -4.25964 -0.216529 0.00471968 0.335302 
2406 0.157364 0.0274131 0.0241025 0.499598 -4.35273 -0.225956 0.242069 -0.371181 
2445 0.133432 0.0526356 0.0221134 1.53091 -4.32456 -0.494444 0.132721 -0.30985 
3205 0.133279 0.028702 0.0529894 1.41895 -4.29059 -0.814474 -0.532785 0.346129 
3246 0.15464 0.053856 0.0518911 0.671016 -4.29307 0.902527 -0.426731 0.623479 
1606 0.157159 -0.000603861 0.998532 0.930914 -4.27694 -1.19076 0.680007 -0.771683 
2405 0.130367 0.000370162 0.0278547 0.536138 -4.29607 0.815191 -0.227807 0.0438722 
3206 0.155607 0.00270184 0.0542087 0.231849 -4.35241 -0.220769 -0.203409 0.180463 
2447 0.18011 0.054285 0.0237587 0.175377 -4.34963 -0.105177 -0.48484 -0.243488 
3207 0.179459 0.0300284 0.0548434 0.656395 -4.32908 -0.213617 -0.851148 -0.39896 
2408 0.202579 0.0285985 0.0242441 0.184252 -4.39339 0.170492 -0.122493 -0.137223 
3248 0.203168 0.05399 0.0532858 0.151701 -4.36141 0.0886884 -0.148497 0.031679 
2407 0.180129 0.0028889 0.0255418 0.264907 -4.33465 0.246078 0.464566 -0.347893 
3208 0.202583 0.00383536 0.0545254 0.291313 -4.32134 0.500938 0.449861 -0.191708 
2449 0.226166 0.053952 0.0226479 0.218391 -4.30885 0.0957626 -0.0170792 0.685288 
3209 0.226458 0.0281998 0.0527061 0.0946493 -4.36315 0.157506 0.0665059 0.0739517 
2410 0.249449 0.0273226 0.0235604 0.413942 -4.29706 0.558388 0.416297 0.220217 
2451 0.274578 0.0549875 0.0228905 0.251605 -4.31336 0.0132598 -0.60095 0.134004 
2411 0.27483 0.00226423 0.023411 0.325177 -4.34832 0.0978131 0.423567 0.0148832 
3211 0.275273 0.0293212 0.0510374 0.250083 -4.34805 -0.237604 0.0555598 0.252517 
3250 0.250547 0.0538079 0.0511917 0.223215 -4.34874 0.148575 -0.267837 0.250787 
2409 0.226931 0.00297299 0.0241566 0.220945 -4.335 0.10276 0.215459 0.0173876 
3210 0.251822 0.00286387 0.052166 0.289663 -4.30706 -0.783643 0.411474 -0.085891 
1613 0.322586 0.0243217 0.995094 2.24416 -4.19924 0.193426 1.32628 -0.246952 
2412 0.29945 0.0279713 0.022749 0.132873 -4.34743 -0.446629 0.285832 -0.0427889 
2453 0.323078 0.0535656 0.0199812 0.682649 -4.34241 0.548505 0.582532 -0.256244 
3213 0.324257 0.0274399 0.0511811 0.407768 -4.37071 -0.253652 0.49505 -0.0290013 
3252 0.300822 0.0542747 0.0507729 0.49179 -4.36358 -0.339031 0.392306 0.134781 
2413 0.323189 0.00215617 0.0222106 0.282442 -4.29807 0.403221 -0.392444 0.70004 
3212 0.299224 0.00381616 0.0517758 0.126072 -4.37267 0.0292807 -0.11249 0.193626 
2414 0.348118 0.0293378 0.0219858 0.413902 -4.34516 -0.0307917 0.114636 -0.493942 
3254 0.346703 0.0546264 0.0525593 0.577572 -4.27498 0.3937 -0.4758 -1.28713 
2455 0.37263 0.0549852 0.0223968 0.253759 -4.29759 -0.522295 -0.139731 -0.204567 
3215 0.371751 0.0280295 0.0513204 0.167802 -4.34135 0.178589 0.663628 0.134182 
1614 0.348755 0.00230284 0.994804 0.746824 -4.30308 -0.353783 -0.0714497 -0.0565322 
3214 0.348733 0.00363452 0.0510371 0.271768 -4.36474 -0.530013 -0.481837 -0.0203011 
2415 0.372577 0.00411933 0.0227523 0.276408 -4.35407 0.336907 -0.0234062 -0.749523 
2416 0.398163 0.0283359 0.021386 0.47687 -4.2955 -0.550274 0.763657 0.425965 
3256 0.396359 0.0538678 0.0504978 0.301576 -4.32013 0.246111 -0.2788 0.635391 
2457 0.421819 0.0528438 0.0213662 0.598291 -4.32548 0.165583 0.616127 0.222562 
3217 0.422138 0.028285 0.0530681 0.320053 -4.30733 -0.627069 0.34847 -0.514615 
3216 0.395598 0.00354104 0.0524364 0.354235 -4.31709 0.788586 0.673594 -0.453902 
2417 0.421611 0.0043241 0.02358 0.219793 -4.38277 0.186143 -0.328097 -0.364235 
2418 0.446929 0.0290342 0.0220838 0.388651 -4.31003 0.319345 -0.0479996 0.433752 
3258 0.447076 0.0528283 0.051998 0.137332 -4.33827 -0.131367 0.255883 -0.231622 
1619 0.473948 0.0287355 0.997264 0.611095 -4.32024 -0.483233 -0.44048 -0.517702 
1660 0.501536 0.0506805 0.999658 0.679453 -4.20718 -0.99875 0.757296 -0.559371 
2420 0.496652 0.0264421 0.0260508 0.287126 -4.31173 0.316955 0.0100586 0.122731 
2459 0.471926 0.0537727 0.0230476 0.611842 -4.29876 0.666365 0.119499 0.599937 
3219 0.472128 0.0276678 0.0526149 0.425155 -4.34031 -0.754822 -0.233204 -0.0695466 
3260 0.495525 0.0511607 0.056497 0.415781 -4.37108 0.462198 0.253618 -0.756537 
3218 0.445442 0.00398066 0.0530065 0.168897 -4.33453 0.305704 -0.172012 -0.0559646 
1620 0.496897 0.00154364 -0.0019111 0.443858 -4.28358 0.558026 0.28159 0.164527 
2419 0.470649 0.00174133 0.0241905 0.590867 -4.31328 0.0915786 1.12571 0.549675 
3220 0.495564 1.00334 0.0551684 0.204231 -4.33479 0.0773207 -0.0949827 0.0315008 
1621 0.524175 0.0259528 0.000860716 0.209171 -4.30876 0.360112 -0.300647 0.440424 
2461 0.522041 0.0520918 0.0283539 0.36944 -4.23915 0.437088 -0.50261 0.563168 
3221 0.521276 0.0272769 0.0556281 0.510997 -4.36427 -0.205884 -0.75256 0.00610345 
1662 0.55051 0.0497363 0.00303958 0.189204 -4.31593 0.169296 0.379208 -0.00120865 
2422 0.547407 0.0260926 0.0288305 0.481447 -4.30401 0.0110701 -0.587949 1.03935 
3262 0.545715 0.0517823 0.057835 0.455281 -4.3497 0.296525 -0.511655 0.185418 
3222 0.544984 -3.72395e-05 0.0594897 0.223049 -4.33017 -0.000152389 0.601563 -0.608526 
2421 0.52077 -9.8313e-05 0.0278233 0.768923 -4.313 0.919002 0.96133 -0.511537 
1622 0.550674 0.000188502 0.00246737 0.470503 -4.29984 -0.544076 -0.0431278 -0.281177 
1623 0.575018 0.0254518 0.00435059 0.264427 -4.31384 0.192832 -0.441217 -0.0616843 
2463 0.572945 0.0503371 0.0335778 0.185433 -4.33779 -0.255804 -0.649538 0.146387 
3223 0.569429 0.023546 0.0625288 0.554902 -4.28548 0.566814 0.942075 -0.881616 
1664 0.599261 0.0478213 0.00678071 0.28008 -4.31439 -0.272926 0.143697 0.299291 
2424 0.595923 0.0241519 0.0357812 0.124825 -4.32975 0.137661 -0.161492 -0.0781505 
2423 0.570972 0.000100281 0.0327949 0.24467 -4.33517 0.532163 -0.0710627 0.139322 
1624 0.598955 -0.00233766 0.00754139 0.638169 -4.33745 -0.766489 0.913958 -0.436226 
3264 0.594512 0.0505898 0.0640302 0.305259 -4.33865 0.00285133 -0.998027 0.235299 
1625 0.623254 0.0230358 0.00822233 0.2591 -4.3609 -0.472995 -0.235054 0.58395 
2465 0.620602 0.0474306 0.0381329 0.318343 -4.35382 -0.122064 0.629637 -0.00324969 
3225 0.618154 0.0246046 0.0665498 0.272813 -4.32013 0.176991 -0.689153 0.201148 
1666 0.64655 0.0473542 0.0120623 0.304413 -4.33061 -0.681616 0.472599 -0.0567648 
2426 0.644482 0.0229451 0.0410888 0.167006 -4.38856 -0.0509196 0.235539 0.461485 
1626 0.647635 0.998587 0.0115227 0.41482 -4.34474 -0.771781 0.0891358 -0.271896 
1627 0.669519 0.0242667 0.0153844 0.544902 -4.35731 0.616129 -0.314501 -0.531971 
1668 0.695089 0.0482738 0.0148363 0.626975 -4.38878 -0.76888 -0.498589 0.41198 
2428 0.692697 0.0222946 0.0471594 1.0364 -4.2877 -0.576787 0.370549 -0.593292 
2467 0.668777 0.0496973 0.0433154 0.452648 -4.31933 -0.436996 -0.917445 -0.140476 
1629 0.717323 0.0227072 0.0163636 0.217222 -4.34628 0.141732 -0.0736579 -0.203299 
2469 0.716263 0.046283 0.0475569 1.07888 -4.33236 -0.64077 0.329968 -0.23177 
1628 0.693343 1.00036 0.0129798 0.75328 -4.31499 -0.198904 -0.42202 0.845479 
2427 0.668566 0.998366 0.0422928 0.346664 -4.33565 0.241297 -0.0937396 0.288949 
1670 0.738852 0.0478836 0.018595 0.373873 -4.36339 0.288934 -0.0328746 -0.32255 
2430 0.762046 0.0231077 0.0202618 0.683747 -4.40073 0.30557 0.112492 -0.116791 
3229 0.737657 0.0211547 0.0489755 0.914018 -4.34433 0.0352079 0.417101 0.15507 
3270 0.761151 0.048582 0.0493052 0.420307 -4.35003 0.419804 -0.0708863 -0.137516 
2429 0.740152 0.997522 0.0165162 0.572199 -4.33097 -0.204049 0.682418 0.531225 
2432 0.81232 0.0243913 0.02141 0.159471 -4.29231 0.683209 0.567352 -0.00376856 
2471 0.787965 0.0482384 0.0213525 0.130174 -4.3474 -0.0982891 0.295218 0.0244465 
3231 0.786214 0.0247694 0.0482881 0.438136 -4.327 0.447258 -0.251842 0.701696 
3232 0.811633 1.00195 0.0484294 0.832228 -4.32112 0.25525 -1.15245 0.879442 
3272 0.813372 0.0492494 0.0527042 0.825119 -4.28386 -0.748771 -0.784434 -1.41043 
2431 0.787945 1.00012 0.0204249 0.205284 -4.33879 -0.14055 -0.591432 0.192867 
2473 0.838527 0.0483783 0.0219165 0.509122 -4.3264 -0.931491 -0.126579 0.603921 
2434 0.863648 0.0242851 0.023111 0.793743 -4.28997 -0.875168 -0.361299 0.774934 
2475 0.885969 0.0508527 0.0272774 0.994802 -4.24859 -0.225884 -1.80373 0.17826 
3235 0.884883 0.0231672 0.0539533 0.418936 -4.33682 0.333141 0.514576 0.564736 
3274 0.860508 0.0462823 0.0536985 0.93008 -4.30771 0.277795 0.904851 -0.400041 
3234 0.860561 -0.000419552 0.0529253 0.159754 -4.38204 -0.0465408 0.184615 -0.0975696 
2435 0.887268 -0.00180753 0.0284785 0.464564 -4.3119 -0.591666 0.253386 -0.670056 
3233 0.836505 0.0245114 0.0512352 0.180106 -4.3411 0.391236 -0.436618 -0.295518 
2436 0.910025 0.0233729 0.0286464 0.30647 -4.32771 0.356265 0.698431 0.334061 
2477 0.935597 0.0487849 0.0309773 0.445444 -4.3429 -0.752653 -0.234742 -0.32648 
3237 0.935462 0.0239619 0.0599596 0.484005 -4.3197 -0.205875 0.455987 -0.620258 
3276 0.910128 0.048841 0.0566618 0.178111 -4.33543 -0.300324 -0.17802 -0.390678 
3236 0.909884 0.999877 0.0585162 0.436224 -4.32843 0.172337 0.38253 -0.299971 
2437 0.934616 1.00041 0.0312349 0.379879 -4.3556 0.207949 -0.0227987 -0.557926 
1639 0.983158 0.0239065 0.00271703 0.202964 -4.35727 0.359684 0.064763 -0.223695 
2438 0.959047 0.0243999 0.0297293 0.167672 -4.33835 0.104062 -0.349257 0.304752 
2479 0.983924 0.0492054 0.0294411 0.12586 -4.352 0.22838 0.0951364 -0.225787 
3239 0.985133 0.0257614 0.0575239 0.436206 -4.36582 -0.473425 -0.429773 0.320787 
3278 0.960282 0.0488231 0.0579385 0.326473 -4.36509 -0.340569 0.167947 0.171539 
2439 0.982584 -0.00162934 0.031042 0.467831 -4.29618 0.81897 0.929345 -0.555034 
3238 0.960478 1.00064 0.0591031 0.422703 -4.32233 -0.361796 -0.172681 0.0615881 
1641 0.0326254 0.0745692 0.000664805 0.243249 -4.32978 -0.603903 -0.583838 0.00338802 
1682 0.0546785 0.0997856 -0.000934571 4.51334 -4.19593 0.568215 -0.0301277 0.573073 
2442 0.0554134 0.0758817 0.0271985 0.90318 -4.23943 0.554665 -0.590381 0.867807 
2481 0.0305735 0.099778 0.0276877 0.863646 -4.30059 0.481135 0.0473171 0.205895 
2440 0.00713256 0.074292 0.028793 0.251762 -4.37693 0.533588 0.252204 0.285743 
3241 0.0320882 0.0749827 0.05881 0.453461 -4.35216 0.0673001 0.520544 -0.480953 
3280 0.00802027 0.100839 0.0585572 0.437277 -4.31653 -0.0644922 -0.497964 -0.671876 
1680 0.00818813 0.0996208 -0.00059128 0.408997 -4.26162 -0.649059 0.383603 1.12096 
3282 0.059871 0.0998559 0.0531152 1.11603 -4.29685 -0.942596 0.331245 0.56434 
1643 0.079914 0.0727185 0.00217202 4.61888 -4.24278 0.104377 0.402253 -0.343435 
2444 0.108341 0.0775306 0.0220059 4.15652 -4.33942 -0.00580473 0.244869 0.362678 
2483 0.0828816 0.101289 0.02193 1.88227 -4.34092 0.547429 0.116901 -0.131165 
3243 0.0843758 0.0757632 0.0538775 0.839116 -4.33753 -0.73099 0.248348 -0.339304 
3284 0.107837 0.101523 0.0552431 0.340078 -4.36424 -0.232626 -0.340819 -0.190418 
2446 0.156533 0.0778376 0.0243246 0.448902 -4.31979 -0.412594 0.709054 -0.612224 
2485 0.1302 0.102877 0.0221744 0.850616 -4.28891 1.01109 0.211434 0.705542 
3245 0.132189 0.0775945 0.0534031 0.13395 -4.35363 -0.684259 -0.090477 -0.18716 
3286 0.154656 0.102713 0.0530558 0.200296 -4.38486 0.357526 0.292127 -0.119185 
3247 0.17965 0.0794319 0.0520062 0.429656 -4.3476 -0.179258 -0.227868 0.733335 
2487 0.179378 0.104718 0.0220693 0.434066 -4.32083 0.182921 -0.0539315 1.06042 
2448 0.202984 0.0789791 0.0233865 0.248421 -4.31131 0.294375 0.599124 0.392431 
3288 0.202266 0.104432 0.05326 0.402934 -4.32254 0.176347 -0.938757 0.413037 
2489 0.226346 0.107421 0.0255385 1.21563 -4.30507 0.346002 -1.49621 -0.736491 
3249 0.228061 0.0781915 0.0525931 0.501902 -4.32762 -0.866738 0.518689 0.0394116 
2450 0.251092 0.0806648 0.0232385 0.575437 -4.32851 -0.912667 -0.358776 -0.0604453 
2491 0.27364 0.104519 0.0196193 0.780458 -4.33279 0.572807 0.167829 0.647683 
3251 0.275599 0.079664 0.0517905 0.211972 -4.33649 -0.010034 -0.356944 -0.358226 
3290 0.251249 0.104503 0.0528665 0.268297 -4.30956 -0.0782406 -0.407895 -0.133014 
2452 0.298224 0.0811546 0.0195775 0.938911 -4.36237 0.635148 -0.539011 -0.15789 
2493 0.325476 0.104733 0.0185124 0.68508 -4.27404 -0.239895 0.605288 0.658505 
3253 0.324458 0.0800155 0.0497109 0.346297 -4.32119 -0.366887 -0.0854121 0.133452 
3292 0.300595 0.103292 0.0497299 0.579045 -4.31116 -0.552347 0.435601 0.572529 
2454 0.348555 0.0816779 0.0197682 0.304437 -4.29181 0.318474 -0.610706 0.315184 
3294 0.348701 0.105608 0.0523807 0.344252 -4.36095 -0.275875 -0.337263 -0.368372 
2495 0.372652 0.106226 0.0222806 0.262797 -4.36805 0.0724339 0.0247596 0.184446 
3255 0.371464 0.0801255 0.0512133 0.210509 -4.34944 0.219256 -0.218868 0.34475 
2456 0.395818 0.079993 0.0239532 0.462727 -4.30431 0.212013 0.0947933 -0.758178 
3296 0.397485 0.103639 0.0524765 0.153139 -4.35659 -0.477446 0.292372 0.53086 
2497 0.421249 0.105903 0.0225984 0.733897 -4.31081 0.146659 -0.535227 0.219884 
3257 0.420569 0.0794471 0.0514848 0.589768 -4.3345 0.743549 -0.765229 -0.176958 
2458 0.44735 0.0791992 0.0221884 0.368637 -4.28725 -0.45862 -0.193867 0.506713 
3298 0.447076 0.101508 0.0532657 0.395979 -4.32855 -0.0555421 0.688979 -0.14303 
2460 0.498315 0.0796313 0.0265285 1.31111 -4.27631 -0.384614 -1.26972 -0.626747 
2499 0.472372 0.102436 0.0239064 0.268288 -4.29769 -0.190959 0.00807623 -0.0493873 
3259 0.471868 0.077176 0.0544174 0.194133 -4.36777 0.109279 -0.0632016 -0.442265 
3300 0.49657 0.10177 0.055171 0.107029 -4.31365 -0.0576794 0.282714 -0.174414 
1661 0.525832 0.0742797 1.00096 0.474732 -4.22894 -0.0889532 0.606792 -0.609272 
2501 0.523537 0.101031 0.0276027 0.580614 -4.28145 -0.911404 -0.118994 -0.439567 
3261 0.520186 0.075236 0.0569655 0.464551 -4.36019 0.372395 0.335598 -0.117121 
1702 0.549506 0.098389 0.00408733 0.821144 -4.1779 -0.14283 -0.192145 -1.76054 
2462 0.548452 0.0760168 0.0305411 0.306354 -4.25322 -0.57736 -1.14641 0.457071 
3302 0.544439 0.09976 0.058302 0.222028 -4.37555 0.405214 0.179418 0.235286 
1663 0.574816 0.0740698 0.00581419 0.212975 -4.35654 -0.259622 -0.218369 -0.633671 
2503 0.570589 0.099137 0.0326201 0.346211 -4.31303 0.971521 0.466054 0.898854 
1704 0.597211 0.0997291 0.00813484 0.430842 -4.33226 0.835075 -0.23811 -0.151295 
2464 0.596301 0.0744717 0.035346 0.108903 -4.39949 0.620593 -0.0381029 0.214296 
3304 0.594012 0.100938 0.0638755 0.245355 -4.35836 0.330281 -0.219677 -0.734278 
3263 0.570876 0.0752299 0.0615066 0.266157 -4.31568 -0.827755 0.00160297 -0.128444 
1665 0.622106 0.0729501 0.00843672 0.235699 -4.27061 0.27452 0.0903012 0.712161 
2505 0.620541 0.0984833 0.0369552 0.408591 -4.30475 -0.497291 0.332709 0.138887 
1706 0.646027 0.0983539 0.0127992 0.195122 -4.29086 0.167348 0.286186 -0.137691 
2466 0.642382 0.0728034 0.0391976 0.754164 -4.32858 0.730163 0.0306528 0.450195 
3306 0.640846 0.100078 0.0674416 0.727471 -4.35314 0.842616 -0.0439027 0.0323589 
3265 0.619288 0.0747138 0.0673766 0.485294 -4.33459 -0.407587 -0.199288 -0.594471 
1667 0.669048 0.0723892 0.0141258 0.369566 -4.36632 0.405132 0.231482 -0.331999 
1708 0.693811 0.0982447 0.0176828 0.432176 -4.31994 -0.268615 0.410179 -0.963826 
2468 0.692675 0.0734848 0.0415888 0.906384 -4.26661 -0.283033 -0.395788 1.42145 
2507 0.667554 0.0972947 0.042808 0.596466 -4.32546 0.146065 0.904125 -0.553281 
1669 0.716362 0.0739143 0.0167723 0.201716 -4.33774 0.809289 -0.462365 -0.0035435 
3308 0.716394 0.0988938 0.0464042 0.161213 -4.33843 0.0520441 -0.187593 0.376444 
2470 0.763216 0.0731887 0.0212656 0.27277 -4.33909 0.48173 -0.247292 -0.472639 
2509 0.739941 0.098639 0.0186257 0.124282 -4.36487 0.0317074 0.108715 0.174208 
3269 0.738924 0.0733662 0.0472353 0.117185 -4.35297 0.0310666 0.245778 0.230245 
3310 0.763631 0.0988662 0.0485643 0.073344 -4.3958 0.100747 -0.171085 -0.0346759 
2472 0.812283 0.0723862 0.0227913 0.351303 -4.38525 0.296014 0.164719 -0.280119 
2511 0.788198 0.0974679 0.0204442 0.28075 -4.34331 -0.204605 0.130555 0.483761 
3271 0.787995 0.073603 0.0494487 0.131738 -4.34277 -0.430332 -0.0413302 0.121717 
3312 0.811812 0.0991441 0.0498082 0.205279 -4.32865 0.072647 -0.917787 0.26405 
2513 0.836884 0.0981739 0.0234409 0.226425 -4.29265 -0.529355 0.0386106 1.12106 
3273 0.836442 0.0717444 0.0523208 0.534936 -4.33295 0.454129 1.29432 -0.631347 
2474 0.861468 0.0726726 0.0255329 0.248096 -4.35438 -0.445037 0.362912 0.144982 
2515 0.884048 0.098466 0.0278663 0.422299 -4.31718 0.378348 -0.0888703 -0.483044 
3275 0.88468 0.0732407 0.0538208 0.206986 -4.26404 0.0285362 0.245657 0.7979 
3314 0.859934 0.100017 0.0530392 0.410015 -4.32107 0.358703 -0.626166 -0.0726487 
2476 0.910568 0.0732408 0.0280591 0.28822 -4.31217 -0.23997 0.282303 0.0251552 
2517 0.934036 0.0992234 0.028553 0.236644 -4.33405 0.212846 -0.422734 -0.73542 
3277 0.933862 0.0747795 0.0561479 0.169045 -4.32606 0.529094 -0.065798 0.0637267 
3316 0.908407 0.0977355 0.0548001 0.407153 -4.34284 0.146956 0.765498 -0.00909668 
2478 0.95974 0.0732845 0.0286656 0.298596 -4.35349 -0.516287 0.610034 0.438673 
2519 0.98432 0.100088 0.0302711 0.391863 -4.37682 -0.156665 -0.282962 -0.571296 
3279 0.983213 0.0738891 0.0570969 0.323491 -4.33445 0.377714 0.619089 0.104548 
3318 0.958623 0.0996682 0.0562345 0.0903458 -4.34409 0.152725 0.209311 0.150364 
2482 0.0594752 0.125819 0.0227322 1.10386 -4.32425 -0.102259 -0.0313872 0.284966 
2521 0.0337378 0.151319 0.0280831 0.511852 -4.29117 0.270627 -0.198202 -0.606984 
3281 0.0336014 0.12417 0.0534109 0.88177 -4.31175 0.679284 0.764513 0.576889 
3322 0.0594593 0.149731 0.0523962 0.64414 -4.33684 -0.158728 0.230218 0.643601 
3320 0.00983593 0.149746 0.0567142 0.412549 -4.33535 -0.301217 0.37777 -0.323275 
2480 0.0070836 0.125777 0.0287533 0.447888 -4.34776 0.316037 -0.106596 -0.364676 
2484 0.106497 0.125729 0.0259123 1.09422 -4.3091 0.27753 0.606402 -0.861753 
2523 0.0831067 0.151534 0.0234057 0.308956 -4.30101 0.152899 0.105045 0.557544 
3283 0.082414 0.124157 0.0540894 0.467359 -4.31742 0.449736 0.669315 0.0283654 
3324 0.106921 0.151447 0.0544373 0.131883 -4.35429 0.0086985 -0.426847 -0.140015 
2486 0.155237 0.129395 0.0238975 0.305952 -4.29869 0.217996 -1.18836 0.130122 
2525 0.131617 0.151479 0.0236883 0.424287 -4.29883 -0.37504 0.736126 0.830889 
3285 0.130776 0.126128 0.0541296 0.219374 -4.36081 0.230018 0.290591 0.214983 
3326 0.154635 0.151024 0.0534059 0.498691 -4.32571 -0.0378125 0.696401 0.877291 
2527 0.179225 0.153148 0.024493 0.299002 -4.37003 0.306217 0.295718 0.598325 
3287 0.178799 0.128089 0.0548236 0.149485 -4.35612 -0.372118 -0.307606 -0.360278 
2488 0.202787 0.129313 0.0266527 0.362516 -4.31375 -0.0606463 0.221984 -0.997451 
3328 0.203412 0.151801 0.0552339 0.218807 -4.35251 -0.220964 0.250367 0.418917 
2529 0.227152 0.153723 0.0259249 0.0801143 -4.37611 0.027595 0.0789346 -0.237315 
3289 0.227107 0.128058 0.0562015 0.40465 -4.32801 -0.122044 0.310142 -0.31625 
2490 0.251186 0.129911 0.0243955 0.17106 -4.35929 0.0260512 -0.249996 -0.33768 
2531 0.274374 0.153931 0.0219822 0.58756 -4.36616 0.6975 0.432132 0.601271 
3291 0.275729 0.129765 0.0528393 0.622269 -4.33386 -0.0392264 -0.986478 -0.47399 
3330 0.251366 0.153853 0.0535935 0.323425 -4.35571 0.12695 -0.342497 0.181976 
2492 0.297905 0.127555 0.0200236 1.19845 -4.31873 1.0052 0.634374 0.542354 
2533 0.324056 0.153136 0.0212496 0.41955 -4.32554 0.189109 0.149339 0.431902 
3293 0.324149 0.127857 0.0525915 0.196234 -4.31774 -0.353559 -0.339266 -0.785851 
3332 0.301579 0.151729 0.0506942 1.07597 -4.32579 -0.832582 -0.00869087 0.345361 
2494 0.348214 0.129865 0.0211733 0.291125 -4.32459 0.455868 -0.335621 0.509498 
3334 0.347039 0.150727 0.0546753 0.756023 -4.31894 0.425785 0.816022 -0.957113 
2535 0.371713 0.153096 0.0246028 0.429814 -4.35748 0.518022 0.108296 0.267001 
3295 0.373299 0.129321 0.0554274 0.747462 -4.2923 -0.225051 -0.827128 -1.18451 
2496 0.396829 0.12955 0.0240491 0.179518 -4.30889 0.16482 -0.553011 -0.138875 
3336 0.39773 0.151581 0.0531652 0.426915 -4.3105 -0.502611 0.467147 0.275104 
2537 0.420551 0.153375 0.025431 0.534359 -4.34393 1.15332 -0.284103 -0.324363 
3297 0.422209 0.128091 0.055137 0.514379 -4.3384 0.0982302 -0.332379 -0.582174 
1738 0.447161 0.154688 0.997727 0.216717 -4.3556 -0.298718 0.405172 0.169259 
2498 0.446375 0.127541 0.0239749 0.4528 -4.30091 0.0605834 -0.106265 -0.0358304 
2538 0.447912 0.177894 0.0274526 0.272713 -4.30018 -0.363402 -0.438806 -0.0783563 
3338 0.447728 0.150937 0.0528897 0.535852 -4.33337 -0.440533 0.372095 0.0609909 
1740 0.499232 0.153434 -0.00304472 0.658025 -4.26269 -0.014405 0.134672 0.451845 
2500 0.498393 0.127421 0.024626 0.487179 -4.36669 0.192484 -0.693517 -0.273634 
2539 0.4741 0.152413 0.0248302 0.539692 -4.34642 -0.515407 0.261037 -0.0527627 
2540 0.498359 0.177035 0.027135 0.326676 -4.32777 -0.421193 -0.916714 0.45653 
3299 0.473175 0.126653 0.0515627 0.76386 -4.34885 -0.715494 -0.261492 0.777229 
3339 0.472573 0.173825 0.0561914 0.76088 -4.3318 0.109347 1.08726 -0.305135 
3340 0.496724 0.149907 0.0558691 0.210734 -4.35416 0.599822 0.437755 0.000533747 
2541 0.523855 0.15027 0.025827 0.73475 -4.32413 -0.375388 0.201997 0.211133 
3301 0.521549 0.12537 0.0554272 0.233395 -4.3676 -0.10836 0.377591 0.310915 
3341 0.521197 0.172792 0.0590434 1.14619 -4.36944 -0.00433627 0.627693 -0.323602 
1742 0.547556 0.151074 0.997026 4.28956 -4.37083 -0.604209 -0.279942 0.139932 
2502 0.546426 0.124291 0.0269025 0.64575 -4.31687 -0.0699008 0.596726 0.322192 
2542 0.546714 0.176798 0.0306297 0.729317 -4.32859 -0.373136 -1.21123 -0.419581 
3342 0.546009 0.149277 0.0585182 0.307478 -4.35274 -0.425564 0.112346 -0.116597 
1703 0.573909 0.121677 0.00414718 0.848044 -4.23879 -0.183178 1.06831 0.0720283 
1743 0.571814 0.174552 0.00238654 4.48709 -4.37277 -0.46877 0.32018 -0.157365 
2543 0.568807 0.148773 0.0286732 1.51829 -4.3528 0.0975906 0.16951 0.308042 
3303 0.568597 0.125147 0.0600924 0.262178 -4.37065 -0.219122 -0.263796 -0.113667 
3343 0.568811 0.174648 0.0598286 0.333715 -4.29688 0.191916 -0.0389263 0.336186 
1744 0.596916 0.148034 0.00774671 0.312023 -4.30834 0.00101886 0.329021 -0.225582 
2504 0.596044 0.125213 0.0356047 0.485981 -4.23683 -0.724924 -0.531015 0.0840547 
2544 0.593025 0.173981 0.0325268 1.02223 -4.29492 0.335271 0.297033 0.770448 
3344 0.590649 0.149876 0.0602754 1.49174 -4.32347 1.08317 0.246246 0.969541 
1705 0.620759 0.125146 0.011869 0.915996 -4.27004 0.845595 -0.693769 -0.673743 
1745 0.619755 0.176789 0.010616 0.894709 -4.27841 0.905232 -0.683934 -0.105275 
2545 0.620956 0.151347 0.0372255 0.854017 -4.35913 -0.58617 -0.0966067 0.120137 
1746 0.64807 0.150663 0.0137909 0.511981 -4.27401 -0.62533 0.348536 -0.00638604 
2506 0.64489 0.125112 0.0385135 0.389686 -4.35383 0.154141 -0.458615 0.38933 
2546 0.644718 0.176206 0.0413929 0.307183 -4.31335 -0.413245 -0.676858 0.0863541 
3305 0.618098 0.125281 0.0645277 0.282485 -4.35121 -0.09271 -0.0462826 0.143949 
1747 0.670664 0.175739 0.0160868 0.149416 -4.33701 -0.35747 0.00796836 -0.554038 
2547 0.670281 0.149498 0.0427168 0.352079 -4.33705 -0.407119 0.0874922 0.344362 
3345 0.616548 0.174374 0.0666168 0.330491 -4.34622 0.132115 0.0320213 -0.575479 
1707 0.672412 0.12495 0.0149654 0.777546 -4.289 -0.699916 -0.739214 0.728354 
1748 0.694109 0.1504 0.0143089 0.732563 -4.29307 0.445365 -0.571296 1.16413 
2508 0.693864 0.1234 0.0454569 0.460603 -4.26465 -0.801053 0.446203 -0.332461 
2548 0.69195 0.174496 0.0450243 0.205055 -4.31621 0.730704 -0.111606 -0.256985 
1709 0.716918 0.123647 0.0183827 0.185558 -4.38324 0.240523 0.459703 -0.448332 
1749 0.719108 0.173354 0.0184558 0.457296 -4.34398 -0.546659 1.16497 -0.223136 
2549 0.715992 0.149921 0.0461039 0.244533 -4.36753 -0.171851 -0.634647 0.308772 
1750 0.741328 0.148836 0.019281 0.113323 -4.36744 0.186769 -0.198873 0.125188 
2510 0.763469 0.123259 0.0184077 0.698748 -4.328 0.354246 0.390082 0.880824 
2550 0.740723 0.173141 0.0482675 0.302663 -4.3292 -0.0388541 0.531196 0.726581 
1751 0.764548 0.173824 0.0220665 0.289076 -4.34991 0.466338 0.395025 -0.356007 
3309 0.74028 0.1234 0.048998 0.313189 -4.37574 -0.391164 0.467154 -0.645904 
3350 0.76373 0.148976 0.0509892 0.42578 -4.315 -0.140897 -0.182447 -0.861691 
2512 0.811512 0.122679 0.0237006 0.260135 -4.28995 0.553697 0.891245 -0.541555 
2551 0.787684 0.148786 0.0235402 0.436427 -4.35021 0.0298196 0.07518 -0.722197 
2552 0.811488 0.173176 0.0233659 0.276534 -4.36293 0.256549 0.193601 -0.220989 
3311 0.787259 0.123741 0.0484314 0.252269 -4.34644 -0.535454 -0.401479 0.352481 
3351 0.78906 0.174372 0.0511381 0.258391 -4.26971 -0.715114 0.340263 -0.339842 
3352 0.811053 0.148019 0.0512832 0.239897 -4.29027 0.967009 0.443235 -0.442446 
2553 0.835768 0.148131 0.0240962 0.098089 -4.35157 -0.345777 0.391546 0.182303 
3313 0.83539 0.122173 0.052408 0.46619 -4.26917 -0.241672 1.2873 -0.390572 
2514 0.859165 0.124877 0.0250665 0.551191 -4.31395 0.658084 -0.327891 0.628442 
2554 0.861378 0.173058 0.0246062 0.416652 -4.33407 -0.308272 -0.0812227 0.139586 
2555 0.884562 0.148764 0.025404 0.275236 -4.36162 0.262643 -0.0105544 0.412969 
3315 0.886195 0.123982 0.0545673 0.572079 -4.37062 -0.742578 0.249182 -0.0706716 
3354 0.859007 0.148751 0.0538521 0.307831 -4.333 0.620198 0.218516 -0.00845486 
3355 0.88474 0.173866 0.0554501 0.380941 -4.29305 -0.72183 0.122601 -0.592328 
2516 0.910216 0.123927 0.0244308 0.760534 -4.33024 -0.284958 0.0678487 0.780974 
2557 0.935235 0.148261 0.0269082 0.357357 -4.37645 -0.34035 0.464577 0.226781 
3317 0.933337 0.123606 0.0546617 0.206724 -4.34776 0.152892 0.178068 0.452783 
3356 0.910024 0.14807 0.0553321 0.402398 -4.30652 -0.439857 0.4327 -0.46829 
3357 0.933673 0.175191 0.0537324 0.537464 -4.29953 -0.604304 -0.780573 0.851133 
2518 0.959243 0.124477 0.028053 0.15845 -4.37695 -0.186624 -0.172712 0.064146 
2559 0.982006 0.149232 0.0284913 0.480231 -4.33716 0.602318 0.149452 -0.305487 
3319 0.983911 0.125125 0.0571041 0.136729 -4.3546 -0.446522 0.344335 0.378932 
3358 0.958408 0.149198 0.0578816 0.538401 -4.34611 -0.325907 0.331963 -0.571165 
2522 0.0573872 0.176911 0.0252227 0.484781 -4.31956 0.751984 -0.592062 -0.272471 
3321 0.0345571 0.17534 0.0558129 0.360601 -4.34893 -0.357457 -0.251292 0.177316 
2520 0.00877305 0.174437 0.0282342 0.161902 -4.3282 0.133802 -0.126778 -0.259756 
2561 0.0331899 0.200032 0.0257153 0.250275 -4.37086 -0.0359803 -0.23439 -0.266796 
2562 0.0570614 0.224618 0.02912 0.392081 -4.32474 0.303762 -0.583504 -0.760846 
3361 0.0331878 0.222341 0.0543497 0.53565 -4.29998 -0.420261 0.580885 0.95426 
3362 0.0580231 0.198067 0.0556576 0.463966 -4.31782 -0.095988 0.801492 0.306135 
3360 0.00886031 0.198399 0.054626 0.333821 -4.31207 -0.384553 0.187851 0.75169 
2560 0.0074649 0.223194 0.0269397 0.179835 -4.35132 -0.329891 0.194528 -0.0828834 
2524 0.107833 0.175937 0.0258164 0.275089 -4.29725 -0.316266 0.667649 -0.0587443 
3323 0.0838268 0.176023 0.0542288 0.321111 -4.3151 -0.161322 -0.751182 -0.324429 
2563 0.0823447 0.201729 0.0274218 0.34344 -4.34393 -0.029241 -0.428566 -0.605369 
2564 0.106689 0.225994 0.0269892 0.203145 -4.32998 0.0300984 -0.41797 0.666017 
3363 0.0820368 0.223664 0.0584334 0.434876 -4.33983 -0.128891 0.103096 -0.568066 
3364 0.108104 0.200271 0.0558749 0.405908 -4.3587 -0.42207 0.451638 -0.170001 
2526 0.15608 0.177873 0.0267195 0.285538 -4.34876 -0.708019 -0.0821507 0.408213 
3325 0.130176 0.176215 0.05651 0.350128 -4.30776 1.00145 -0.0325921 -0.886328 
1765 0.131343 0.227727 0.999147 0.234005 -4.32672 -0.778788 0.0710977 -0.533717 
2565 0.132563 0.202456 0.0268005 0.408388 -4.28098 -1.06173 -0.414724 0.642087 
2566 0.155318 0.227299 0.029031 0.1448 -4.33587 0.297328 -0.497331 0.407906 
3365 0.132024 0.224966 0.0582368 0.300441 -4.34385 -0.783563 0.22742 -0.203955 
3366 0.156041 0.200976 0.0586069 0.291474 -4.34456 -0.375418 0.0479923 -0.702423 
3327 0.180252 0.176493 0.0574565 0.411531 -4.34861 -0.89937 -0.075445 -0.646739 
2528 0.202879 0.178347 0.0284896 0.424741 -4.35317 0.267272 -0.276519 -0.838521 
2567 0.180041 0.202476 0.0277459 0.169396 -4.39251 -0.553309 0.336105 0.309194 
3367 0.180395 0.226051 0.0591731 0.192307 -4.36596 -0.389277 0.104449 -0.48823 
2568 0.20366 0.226769 0.028689 0.105966 -4.34775 0.213472 0.103756 0.194094 
3368 0.204175 0.201799 0.0573005 0.181137 -4.37969 0.309613 -0.067076 0.026157 
3329 0.227172 0.175517 0.0570039 0.592274 -4.31246 0.0349461 1.07452 -0.00679 
2530 0.250844 0.180583 0.0252303 0.720738 -4.25537 0.16967 -1.61028 0.0188373 