ITEM: TIMESTEP
750
ITEM: NUMBER OF ATOMS
28567
ITEM: BOX BOUNDS pp pp pp
-2.2125810142412661e-03 7.0402212581014751e+01
1.1164441339808207e-02 7.0388835558660446e+01
1.3390677205363630e+00 6.9060932279463955e+01
ITEM: ATOMS id xs ys zs c_csym c_peratom fx fy fz 
802 0.0490113 0.0259508 0.00793051 0.186071 -4.40644 -0.0834229 -0.518293 -0.496585 
841 0.0244994 0.0511461 0.00847297 0.187568 -4.3902 -0.479059 -0.103951 -0.496846 
1601 0.0224818 0.0252527 0.0336121 0.336286 -4.33704 0.906964 0.0667959 -0.590797 
1642 0.049172 0.0502703 0.0317755 0.332258 -4.35631 0.19225 0.0979595 0.694138 
1600 0.998453 0.000552112 0.0340902 0.372555 -4.32238 0.623381 0.0177741 -0.854475 
1602 0.0490272 0.00119279 0.0332695 0.0988372 -4.34162 -0.199008 -0.363472 0.38191 
804 0.100015 0.0227429 0.00918057 0.812061 -4.37185 -0.336731 1.03488 -0.667202 
843 0.075595 0.0496943 0.00720775 0.308977 -4.40328 -0.179124 0.0611838 0.0764886 
1603 0.0735372 0.0246434 0.0329141 0.316621 -4.336 0.87088 0.21285 0.697802 
1644 0.0991917 0.0510106 0.033656 0.277937 -4.33938 0.265925 -0.78355 -0.0478455 
806 0.150074 0.0247797 0.00825261 0.0944348 -4.40792 0.239259 0.0326607 -0.24737 
807 0.175224 0.999249 0.00838717 0.109051 -4.40279 -0.247836 0.206142 -0.2658 
845 0.125032 0.0491986 0.00790374 0.170207 -4.42817 -0.519588 -0.0892425 0.235148 
847 0.174758 0.0508858 0.00679334 0.383913 -4.38684 0.166555 -0.768618 0.631883 
1605 0.124632 0.0245772 0.0337461 0.169192 -4.31607 0.0278062 0.737702 0.505737 
1606 0.149412 1.00024 0.03545 0.328539 -4.35074 -0.030707 -0.0177817 -0.648565 
1607 0.175279 0.0241224 0.0335446 0.235317 -4.37211 -0.410103 0.288749 -0.0367691 
1646 0.149757 0.0499172 0.0339505 0.0653035 -4.38985 0.196693 0.0933307 -0.163029 
805 0.12577 1.00098 0.00943151 0.679845 -4.36486 -0.233731 -0.781934 -0.895004 
808 0.19989 0.0241376 0.00716414 0.127615 -4.40444 -0.048581 0.103848 -0.075307 
849 0.225679 0.0502935 0.00789196 0.366992 -4.36516 -0.401213 -0.190927 -0.878547 
1609 0.224236 0.0250481 0.0308521 0.817905 -4.32886 0.435163 -0.514254 1.15162 
1648 0.198341 0.0493889 0.0323469 0.608008 -4.32858 0.796016 0.384635 0.419476 
810 0.249274 0.0249724 0.00734405 0.345629 -4.39602 0.756371 -0.0260545 -0.612829 
811 0.275191 1.00016 0.00429526 0.685896 -4.39303 -0.0537787 -0.214415 0.813331 
851 0.275569 0.0503168 0.00527622 0.313056 -4.40816 -0.100007 -0.0699393 0.561054 
1611 0.275807 0.0255287 0.0319221 0.241169 -4.33471 -0.0539892 -0.64104 0.00635175 
1650 0.251257 0.0495993 0.0335585 0.34661 -4.33795 -0.0184318 -0.0728985 -0.493538 
1610 0.251058 -0.000912802 0.0312601 0.341693 -4.3597 -0.276248 0.428951 0.253924 
812 0.300014 0.0242579 0.00671468 0.29988 -4.36119 -0.192983 0.635648 -0.457788 
813 0.323621 0.00160507 0.00585573 0.687169 -4.34692 0.838538 -1.23929 0.166257 
814 0.349495 0.0237406 0.00698635 0.402717 -4.42589 0.11761 0.275796 -0.339208 
853 0.324272 0.0493477 0.0053393 0.381794 -4.38736 -0.0478466 0.166511 0.706167 
1613 0.32464 0.0260601 0.0324115 0.283669 -4.33949 -0.203301 -0.705713 0.207193 
1614 0.349147 0.99983 0.033716 0.319611 -4.34401 0.153401 -0.0539985 -0.409976 
1652 0.298792 0.0500728 0.0330689 0.356672 -4.36571 0.693822 0.395928 -0.304363 
1654 0.347929 0.049982 0.0324266 0.491215 -4.33362 0.688082 0.215548 0.0528872 
815 0.375429 -0.000255006 0.0063986 0.194789 -4.35895 -0.767046 -0.0981866 0.220666 
816 0.399932 0.0229831 0.00617243 0.35513 -4.39428 -0.0519689 0.605024 0.572104 
855 0.375512 0.0499786 0.0075001 0.317638 -4.38949 -0.614454 -0.129181 -0.456774 
1615 0.373921 0.0254822 0.0316403 0.498843 -4.35549 0.634138 -0.493537 0.299705 
1616 0.399951 -0.00158324 0.0341566 0.524019 -4.31981 -0.373028 1.05373 -0.865756 
1656 0.400231 0.0487249 0.0325223 0.314638 -4.33676 0.00833861 0.525475 0.0363075 
818 0.450049 0.0245483 0.00656019 0.101441 -4.39755 -0.0503997 -0.227218 0.0800569 
857 0.425084 0.0481334 0.00826649 0.533979 -4.40201 0.100246 0.45613 -0.51309 
1617 0.424311 0.0230184 0.0326671 0.383176 -4.34214 0.33172 0.318081 0.221556 
1618 0.450035 -0.000123656 0.0329926 0.0794577 -4.34926 -0.0213156 -0.216793 0.247672 
1658 0.449738 0.0500215 0.0338868 0.13075 -4.34061 -0.217894 -0.111901 -0.428531 
817 0.425492 -0.00132298 0.00579988 0.284718 -4.42089 -0.0732178 0.191153 0.444919 
820 0.499585 0.0250167 0.00684555 0.384793 -4.35814 0.18673 0.16862 0.805247 
859 0.473994 0.0507116 0.00837248 0.320689 -4.41523 0.23919 -0.504847 -0.078976 
861 0.527071 0.0503683 0.00930417 0.579555 -4.39673 -0.828851 -0.254472 -0.217824 
1619 0.474825 0.024346 0.0347412 0.375364 -4.37327 0.417576 0.166521 -0.984473 
1621 0.523529 0.023415 0.0338432 0.786667 -4.32798 0.847789 0.774041 -0.248382 
1660 0.499929 0.050452 0.0344016 0.201429 -4.3369 -0.141405 -0.408144 -0.991231 
819 0.475878 0.999933 0.00685362 0.312439 -4.38966 -0.578122 -0.107491 -0.200214 
62 0.550231 0.0489938 0.982022 16.4521 -3.77335 -0.172867 0.104663 0.150197 
822 0.551432 0.0236407 0.00921191 0.422429 -4.39654 -0.394018 0.11021 -0.278928 
863 0.57576 0.0473778 0.00759752 0.545507 -4.37274 -0.110194 0.842659 0.20527 
1623 0.575445 0.0242573 0.0335976 0.153899 -4.33922 0.127637 -0.471824 0.524709 
1662 0.551303 0.0501455 0.033783 0.308048 -4.32179 -0.62401 -0.556721 0.238714 
823 0.57644 0.998798 0.00749649 0.274151 -4.41425 -0.322489 0.339403 0.0537845 
1622 0.549939 -0.0016321 0.0341205 0.191539 -4.35227 0.308796 0.434657 -0.292953 
824 0.600482 0.0243344 0.00650707 0.189476 -4.3864 0.51106 0.251515 0.489165 
825 0.625932 0.999248 0.0069125 0.271194 -4.38425 -0.374062 0.437693 0.640677 
865 0.625165 0.0501154 0.00813998 0.242633 -4.39909 0.047519 -0.385703 -0.56855 
1625 0.625714 0.0252205 0.033425 0.147967 -4.36708 -0.111196 -0.510797 0.243392 
1664 0.599622 0.0478027 0.0352172 0.63149 -4.3284 0.233641 0.747627 -0.662259 
1624 0.600566 0.998811 0.034514 0.149379 -4.35158 0.277978 0.73779 -0.386082 
826 0.650067 0.0258177 0.00784242 0.221332 -4.39943 0.0339888 -0.33356 -0.0752785 
828 0.700694 0.0258132 0.00746813 0.22067 -4.40298 -0.526707 0.0688678 0.59077 
867 0.673675 0.0499164 0.00782056 0.382943 -4.36328 0.894703 -0.209102 0.177885 
1626 0.650953 1.00005 0.0336434 0.124933 -4.37086 -0.30088 -0.128045 0.312934 
1627 0.675139 0.0246863 0.0340667 0.0827554 -4.34351 0.136179 0.226253 0.214793 
1628 0.699467 1.0001 0.0337369 0.310949 -4.37035 0.398705 0.0109516 0.152834 
1666 0.651221 0.0506352 0.0343287 0.277229 -4.36226 -0.267758 -0.399458 0.191291 
1668 0.699676 0.0502097 0.0347523 0.159203 -4.34769 -0.180242 -0.703922 -0.115194 
827 0.675228 1.00061 0.00734499 0.111825 -4.40887 0.283639 -0.177395 0.0914368 
830 0.750825 0.0265788 0.00909475 0.370888 -4.4003 0.0281502 -0.581736 0.0890903 
869 0.725473 0.0502795 0.00736329 0.334756 -4.35216 -0.323908 0.00470062 0.830549 
1629 0.725816 0.0249703 0.0346019 0.111938 -4.38194 -0.28545 0.249873 -0.0928788 
1670 0.750533 0.0506002 0.0357075 0.274458 -4.36373 -0.245315 -0.19806 -0.202165 
1630 0.751517 0.999447 0.0343367 0.252418 -4.35527 -0.250432 0.348509 -0.194688 
832 0.800813 0.0262831 0.00812509 0.227302 -4.41603 0.181974 -0.455097 0.210025 
871 0.776176 0.0495547 0.00852072 0.192607 -4.40613 -0.398734 0.314111 0.215572 
1631 0.775525 0.025774 0.03515 0.176191 -4.34291 -0.367929 0.00556951 -0.400665 
1632 0.798148 0.000628174 0.0327514 0.487308 -4.37008 0.657077 -0.276368 0.45397 
1672 0.800293 0.050843 0.0333461 0.209601 -4.3804 0.368281 0.0204248 0.723449 
834 0.849575 0.0259751 0.0073478 0.289185 -4.36179 0.605542 -0.515435 0.328843 
835 0.874289 0.000385951 0.00661743 0.333576 -4.35649 0.157153 0.082734 0.276529 
873 0.826292 0.0504759 0.00807551 0.15909 -4.38316 -0.44369 0.447535 0.0391152 
875 0.875391 0.0506337 0.00769114 0.0995187 -4.41798 0.0735673 -0.380724 0.021337 
1633 0.825436 0.0251281 0.033864 0.222849 -4.39241 -0.293816 0.125479 -0.0277114 
1635 0.873373 0.0239462 0.033298 0.606577 -4.33164 0.671297 0.702422 -0.270353 
1674 0.849792 0.0525653 0.0335471 0.643038 -4.33438 0.0189426 -0.948276 0.217463 
833 0.824518 -0.00069879 0.00800825 0.179245 -4.3887 0.238791 0.308879 0.0118084 
836 0.901751 0.0256216 0.00719811 0.470782 -4.31433 -1.50272 -0.0369824 -0.417797 
877 0.926576 0.0498761 0.00834805 0.319849 -4.39165 -0.153647 0.397677 -0.447583 
1637 0.92407 0.0243145 0.0313059 0.556991 -4.31507 1.14878 0.0454563 1.14143 
1676 0.900569 0.0499456 0.033343 0.149574 -4.34692 -0.551497 -0.428204 -0.143842 
837 0.925913 0.000146453 0.00474477 0.444513 -4.40042 0.0198052 -0.195408 0.398322 
1636 0.899292 0.000157597 0.0299641 0.830538 -4.30851 0.509925 -0.551773 1.26086 
800 -0.000674521 0.0262637 0.0076229 5.35018 -4.2486 -0.153381 -0.045355 -0.178022 
1640 -0.00147371 0.049811 0.0335395 0.146475 -4.36213 -0.149087 0.737006 -0.134343 
838 0.951643 0.0251313 0.00588579 0.499036 -4.39956 -0.564815 -0.52626 0.507137 
879 0.973265 0.0520822 0.00763 0.533254 -4.38067 1.11859 -0.541097 0.113434 
1638 0.949537 -0.00029276 0.0322939 0.246565 -4.37073 0.377664 0.245471 -0.104901 
1639 0.973879 0.0254957 0.0331114 0.127609 -4.35633 0.407402 -0.365013 -0.3167 
1678 0.950372 0.0498888 0.0332027 0.207817 -4.35474 -0.629587 0.139608 0.478276 
839 0.975406 0.000272056 0.00592054 5.47622 -4.2299 -0.0990737 0.200032 -0.178686 
842 0.0506652 0.0758304 0.00794291 0.248648 -4.41646 -0.209515 0.195829 -0.315046 
881 0.0256533 0.101656 0.00780941 0.301162 -4.40691 -0.505049 -0.278327 -0.285534 
1641 0.0244687 0.0749249 0.0337361 0.107925 -4.35557 -0.190598 0.431862 0.0166711 
1682 0.049155 0.1005 0.0337308 0.168652 -4.35996 0.322387 0.331023 0.0238831 
844 0.0987171 0.074645 0.00794102 0.382848 -4.38052 0.292155 0.249629 -0.642736 
883 0.074505 0.101619 0.00653886 0.169436 -4.41168 0.0100602 -0.0575907 0.382948 
1643 0.0748313 0.0763557 0.0341961 0.403965 -4.34309 -0.246541 -0.268153 -0.724015 
1684 0.100556 0.100443 0.0325402 0.383113 -4.36152 -0.703257 0.349373 0.451548 
846 0.150296 0.0740659 0.00835847 0.2399 -4.37524 -0.159262 0.597522 0.238871 
885 0.124038 0.100834 0.00760304 0.29863 -4.36763 0.501309 -0.105704 0.0501019 
887 0.176161 0.0982171 0.00724524 0.607127 -4.35627 -0.380744 0.448257 0.731865 
1645 0.123942 0.075808 0.0326456 0.264974 -4.3767 0.347361 -0.349857 0.521511 
1647 0.17498 0.0761269 0.0336619 0.267492 -4.35128 0.0039076 -0.308311 0.166234 
1686 0.148747 0.100127 0.034354 0.209601 -4.3595 0.202989 -0.138539 -0.460111 
45 0.126007 0.0743708 0.983796 14.5416 -3.77731 -0.791805 0.202465 -0.300758 
47 0.175893 0.0737395 0.981281 10.1099 -3.80331 -0.17114 0.368778 -0.188925 
848 0.20065 0.0743622 0.00781669 0.265873 -4.40796 0.143823 0.235735 -0.184047 
889 0.225727 0.100312 0.00685856 0.135754 -4.42231 -0.219397 -0.418964 0.192513 
1649 0.226384 0.0732619 0.0328763 0.528509 -4.34418 -0.613715 0.922538 0.597603 
1688 0.201537 0.100248 0.0342265 0.334761 -4.33553 -0.722923 -0.300479 -0.36327 
850 0.249823 0.0749085 0.00749929 0.164921 -4.3989 0.131527 0.0239404 -0.447505 
891 0.274489 0.100245 0.00660884 0.213637 -4.39495 0.241118 0.0939821 -0.272379 
1651 0.274369 0.076092 0.0327888 0.226786 -4.39058 0.287521 -0.495709 -0.170337 
1690 0.250482 0.100651 0.0335847 0.212005 -4.37343 -0.151744 -0.467315 -0.281668 
852 0.301605 0.0752942 0.00696583 0.479528 -4.39291 -0.515921 -0.379971 0.0400403 
854 0.349606 0.0749807 0.00693889 0.120571 -4.41087 0.174975 0.193615 0.152113 
893 0.325689 0.101737 0.00703693 0.516094 -4.39632 0.0200327 -0.565729 -0.14475 
1653 0.324694 0.0768988 0.0336428 0.48597 -4.35162 0.363681 -0.841391 -0.460418 
1692 0.299504 0.0999613 0.0311389 0.525479 -4.32399 0.422512 0.354635 0.402356 
1694 0.349863 0.100879 0.0345655 0.324135 -4.34369 0.202327 -0.335799 -0.765438 
856 0.400292 0.0742904 0.0076683 0.226627 -4.38509 -0.283493 0.199084 -0.0236444 
895 0.375775 0.0995927 0.00653516 0.247808 -4.40206 -0.834292 -0.284418 0.245723 
1655 0.373559 0.0733665 0.0336564 0.457459 -4.35886 0.353666 0.653068 -0.194789 
1696 0.399115 0.0994791 0.0322039 0.30098 -4.35667 0.406393 0.111579 0.703314 
858 0.45011 0.0751187 0.00653796 0.274226 -4.41109 -0.291831 0.0910424 0.372985 
897 0.424567 0.102183 0.00671649 0.73011 -4.36796 0.415973 -0.772342 0.298603 
1657 0.425131 0.0765598 0.0319104 0.591139 -4.36024 0.0808531 -0.690028 0.49041 
1698 0.449234 0.101192 0.0333158 0.28597 -4.35163 0.518119 -0.396257 -0.037719 
860 0.499483 0.0749188 0.00786561 0.142051 -4.41421 0.574296 -0.0221127 0.045373 
899 0.475564 0.0992886 0.00728955 0.164027 -4.3918 -0.271086 0.311674 -0.348917 
901 0.525485 0.0997641 0.0070163 0.144029 -4.41411 -0.126132 -0.166848 -0.177985 
1659 0.473601 0.07591 0.0342396 0.405788 -4.36701 0.610651 -0.115569 -0.359543 
1661 0.524658 0.0753047 0.0352229 0.414161 -4.31059 0.66228 0.147403 -1.16251 
1700 0.499676 0.100279 0.0332683 0.153507 -4.35846 0.283615 -0.414587 0.200344 
862 0.550852 0.0753512 0.00869636 0.507239 -4.36599 -0.189295 -0.233845 -0.557398 
903 0.576101 0.0997601 0.00735999 0.383031 -4.40903 -0.51141 0.00954909 -0.430931 
1663 0.575307 0.0732498 0.0336159 0.267295 -4.34237 0.393593 0.612048 -0.236991 
1702 0.550528 0.100062 0.0323222 0.24115 -4.34201 -0.0633304 0.0619364 0.872652 
864 0.600061 0.073318 0.00867085 0.453056 -4.41317 -0.00467241 -0.00206753 -0.463683 
905 0.625325 0.0997282 0.00640843 0.161204 -4.39917 -0.0411057 -0.153841 0.369397 
1665 0.626369 0.0740726 0.0332973 0.36257 -4.36888 -0.771129 0.33667 0.351822 
1704 0.600447 0.0996867 0.0312401 0.549179 -4.31503 -0.017469 -0.124658 1.06859 
866 0.650437 0.0748724 0.00754777 0.145953 -4.40086 -0.0959314 -0.121678 -0.113576 
868 0.698787 0.0731165 0.00926365 0.814847 -4.40004 0.17709 0.893973 -0.459775 
907 0.675329 0.100021 0.0091251 0.183306 -4.41538 -0.105999 -0.195813 -0.81189 
1667 0.674283 0.0760598 0.0353868 0.46297 -4.34528 0.436647 -0.864441 -0.455091 
1706 0.650411 0.0987122 0.0335882 0.258007 -4.35036 -0.704415 0.918936 -0.0500842 
1708 0.699375 0.100434 0.0338043 0.209466 -4.36047 0.460277 -0.286101 0.352255 
870 0.749506 0.0732677 0.00879868 0.424665 -4.35497 -0.206958 0.901073 0.314172 
909 0.723146 0.0997089 0.00896459 0.343509 -4.39549 0.70663 -0.083184 -0.199786 
1669 0.723616 0.0740663 0.0346069 0.288825 -4.33954 0.773886 0.228148 0.00484578 
1710 0.749044 0.100041 0.0336864 0.233503 -4.33804 0.069906 -0.741461 -0.0441492 
872 0.800918 0.0744726 0.00773596 0.259702 -4.40994 -0.0661349 0.485878 0.0911594 
911 0.774551 0.0981977 0.0079923 0.364436 -4.36518 0.130675 0.545977 0.133157 
1671 0.775298 0.0752399 0.0346813 0.0832813 -4.40105 -0.162207 -0.0166318 -0.014791 
1712 0.800966 0.0997533 0.0340495 0.237206 -4.32732 -0.800657 0.47415 -0.16286 
874 0.850918 0.0762742 0.007227 0.260435 -4.37527 -0.519175 0.00927704 0.671822 
913 0.825029 0.100317 0.00734999 0.120762 -4.38865 -0.0997023 0.132111 0.311777 
915 0.876937 0.10058 0.0092101 0.735498 -4.40709 -0.388648 0.168313 -0.739749 
1673 0.824987 0.0767738 0.0352726 0.382784 -4.34024 0.64956 -0.38586 -0.568166 
1675 0.874262 0.0752648 0.034196 0.313345 -4.35575 0.540982 0.263157 0.0430743 
1714 0.850811 0.101814 0.0338006 0.367988 -4.38534 -0.210238 -0.858497 0.423937 
876 0.900498 0.0746464 0.00845854 0.273791 -4.40374 -0.0878305 0.43658 -0.511725 
917 0.923905 0.10193 0.00770548 0.480047 -4.43641 0.262998 -0.352805 -0.0630362 
1677 0.925215 0.0746284 0.0327233 0.271741 -4.35551 0.200171 0.514755 0.430462 
1716 0.900439 0.100075 0.0342777 0.228816 -4.30467 -0.285611 0.0613478 -0.178204 
840 -0.00132688 0.0770749 0.00934682 0.356374 -4.41225 0.339956 -0.310237 -0.218141 
1680 0.000481342 0.101391 0.0355056 0.294221 -4.3479 -0.10258 -0.152011 -0.525009 
878 0.950071 0.0768154 0.0077544 0.240478 -4.39471 -0.323745 0.0589156 0.283588 
919 0.975377 0.102381 0.00994978 0.501396 -4.37843 -0.0494228 -0.663925 -0.438704 
1679 0.973435 0.0761728 0.0348265 0.231619 -4.38723 0.461361 0.105325 0.0587062 
1718 0.949233 0.101675 0.0342194 0.102387 -4.3816 -0.150529 -0.325422 0.0241177 
81 0.0235342 0.126998 0.979921 11.1511 -3.7795 0.348019 -0.310076 0.373379 
882 0.0494604 0.127167 0.00772654 0.167125 -4.39361 0.132352 -0.474254 -0.306709 
921 0.0250509 0.151278 0.00740574 0.0973209 -4.40686 0.0827683 0.377803 0.0232913 
922 0.0502296 0.177734 0.00731417 0.298736 -4.42669 -0.17098 -0.565728 -0.113031 
1681 0.0257455 0.126575 0.0336157 0.0624852 -4.34905 -0.0719064 -0.0854008 0.369795 
1721 0.0252651 0.176936 0.0334116 0.120323 -4.37919 0.227269 -0.0860746 0.0887567 
1722 0.0502832 0.151856 0.032575 0.16199 -4.36842 -0.0727441 0.0711842 0.6164 
920 0.999857 0.176763 0.00884581 0.305211 -4.41308 0.321526 -0.170734 -0.503185 
884 0.100062 0.126934 0.00577063 0.451243 -4.36427 -0.142313 -0.629238 0.855738 
923 0.075403 0.152279 0.0070989 0.2122 -4.38653 -0.324835 -0.405818 0.226683 
924 0.0992753 0.175898 0.00667651 0.135764 -4.39596 0.0673636 -0.0773211 0.401691 
1683 0.0748594 0.12615 0.032659 0.0740253 -4.38551 0.0945456 -0.156296 -0.0093776 
1723 0.0744837 0.176441 0.0341183 0.185137 -4.36357 0.25746 -0.224221 -0.265307 
1724 0.100324 0.151748 0.0317442 0.385858 -4.30515 -0.743364 -0.361217 0.627997 
886 0.151245 0.124613 0.00949996 0.490139 -4.37209 -0.798739 0.00882537 -0.701127 
925 0.12456 0.150832 0.00801216 0.261136 -4.41448 0.641045 -0.211882 -0.386763 
926 0.149873 0.175374 0.00718391 0.120723 -4.37879 -0.0022995 0.0354176 0.53782 
927 0.175402 0.150573 0.00793729 0.251912 -4.39005 -0.138633 -0.114952 0.0298712 
1685 0.123959 0.126552 0.0340788 0.363277 -4.34693 0.118901 -0.61326 -0.74623 
1687 0.174158 0.123651 0.0342195 0.416545 -4.36191 0.916067 -0.0941861 -0.0559485 
1725 0.124827 0.176096 0.0330126 0.118945 -4.37215 0.29306 -0.108966 -0.019205 
1726 0.151113 0.149824 0.0326275 0.464159 -4.34601 -0.562919 0.681062 0.400635 
1727 0.175643 0.176388 0.0340888 0.558985 -4.30674 -0.253805 -1.18927 -0.721773 
125 0.125021 0.175029 0.982257 15.6627 -3.80723 -0.137851 -0.0505222 -0.42709 
126 0.150335 0.150021 0.981931 16.8539 -3.79287 0.0414862 -0.105825 0.204768 
888 0.200063 0.125089 0.00806748 0.0974477 -4.39965 -0.305744 -0.384604 -0.0671058 
928 0.198886 0.174602 0.00519436 0.896571 -4.3438 0.151037 0.229339 1.22153 
929 0.224127 0.150455 0.00860232 0.517032 -4.38815 0.689328 -0.132295 -0.421037 
1689 0.225112 0.123581 0.0331837 0.223231 -4.31608 0.245309 0.733432 0.0731639 
1728 0.200639 0.148029 0.0334016 0.525713 -4.33275 -0.75733 0.87381 0.258543 
1729 0.223666 0.175064 0.0340035 0.334797 -4.38736 0.288153 -0.168127 -0.383068 
128 0.199037 0.149284 0.981678 16.1343 -3.77018 -0.318406 0.100088 -0.248685 
890 0.250629 0.125248 0.00669574 0.150841 -4.39819 -0.0598973 -0.0764515 -0.141736 
930 0.251462 0.176234 0.00891369 0.974272 -4.38769 -0.480614 -0.644651 -0.853475 
931 0.275813 0.149955 0.00696907 0.127283 -4.38364 -0.494922 -0.00481862 -0.19699 
1691 0.276323 0.124068 0.0323898 0.420938 -4.3379 -0.551121 0.4507 -0.0597638 
1730 0.249847 0.148553 0.0324438 0.311042 -4.38515 0.141842 0.44145 0.418987 
1731 0.274608 0.17482 0.0341667 0.209636 -4.34622 0.326272 0.139955 -0.127702 
130 0.251281 0.151272 0.981494 15.2006 -3.78091 -0.267041 -0.245643 0.273348 
892 0.300263 0.125682 0.00422396 0.799576 -4.35287 -0.447394 -0.47018 1.20747 
894 0.350779 0.124491 0.00552287 0.338525 -4.40196 0.04259 0.214314 0.359624 
932 0.299633 0.174052 0.00702342 0.212475 -4.39372 0.031216 0.302326 0.420884 
933 0.324425 0.148685 0.00719816 0.304507 -4.41953 0.616727 0.389938 -0.0819321 
934 0.350002 0.174522 0.0075058 0.207301 -4.37301 0.315444 -0.71444 -0.173059 
1693 0.324744 0.124334 0.03353 0.260131 -4.38378 -0.275964 0.543526 -0.0296247 
1732 0.298258 0.150367 0.0333646 0.460583 -4.33205 0.795357 -0.667526 -0.00435187 
1733 0.323874 0.173601 0.0331225 0.282388 -4.35279 0.425875 -0.116099 0.25777 
1734 0.350747 0.149247 0.0318788 0.450957 -4.3548 -0.447386 -0.123016 0.707895 
896 0.398952 0.125162 0.00799615 0.452826 -4.38406 0.807828 0.371785 0.36742 
935 0.376099 0.149941 0.00685702 0.236055 -4.35881 -0.616642 0.072473 0.709119 
936 0.400689 0.173904 0.00782315 0.232604 -4.35833 -0.36263 0.574832 -0.143434 
1695 0.374659 0.124338 0.0332361 0.2964 -4.34882 0.0956713 0.396544 0.218031 
1735 0.375143 0.173258 0.0345494 0.390789 -4.34551 0.211007 0.43931 -0.441476 
1736 0.400774 0.150463 0.0340609 0.199686 -4.35573 -0.121225 -0.315794 -0.133431 
898 0.451125 0.123813 0.00681434 0.355524 -4.3882 0.109269 0.285733 -0.0101649 
937 0.425351 0.149746 0.00739987 0.0923012 -4.43138 0.0474131 -0.349614 0.0730626 
938 0.450552 0.173828 0.00647887 0.250284 -4.3978 0.10707 0.415059 0.408096 
1697 0.425606 0.12596 0.0333608 0.276571 -4.31083 -0.425862 -0.447418 -0.324577 
1737 0.425306 0.175382 0.033005 0.319747 -4.38055 0.230226 -0.687753 0.390484 
1738 0.450738 0.148605 0.0336031 0.181101 -4.37859 -0.162241 0.253031 -0.160624 
900 0.499535 0.12431 0.00788246 0.355997 -4.40544 0.00688456 0.10474 -1.01254 
939 0.475124 0.149772 0.00699983 0.175446 -4.38234 0.359546 -0.566249 0.0355007 
940 0.499494 0.173867 0.00742169 0.367763 -4.38861 0.642271 -0.213406 0.169006 
941 0.524996 0.148681 0.00633122 0.16793 -4.38241 -0.00857286 0.507771 0.539872 
1699 0.476577 0.124564 0.0354211 0.728516 -4.32553 -1.02753 0.103012 -0.824779 
1701 0.525119 0.124731 0.0326999 0.072679 -4.39915 0.127023 0.035211 0.169428 
1739 0.47363 0.173386 0.0341332 0.500882 -4.33361 0.722242 0.260619 0.0386671 
1740 0.500155 0.148786 0.0326869 0.168418 -4.34181 -0.0245038 0.537593 0.511699 
1741 0.525343 0.174228 0.0320615 0.186269 -4.36214 0.24124 -0.36125 0.298566 
902 0.549877 0.124798 0.00647976 0.244497 -4.38731 0.465179 -0.664651 0.160839 
942 0.5514 0.174379 0.00695485 0.193302 -4.38984 -0.145736 -0.469678 0.0483266 
943 0.576534 0.147452 0.00683852 0.615735 -4.37599 -0.468508 1.12167 0.372914 
1703 0.574717 0.124442 0.033772 0.360426 -4.32651 0.571532 -0.321339 -0.319341 
1742 0.551711 0.149197 0.0329985 0.345765 -4.35532 -0.866034 0.489212 -0.561363 
1743 0.575223 0.175358 0.033237 0.260562 -4.32937 0.429774 -0.742838 -0.0221291 
105 0.624226 0.12467 0.980452 15.437 -3.76865 0.140852 -0.268954 0.100912 
904 0.600901 0.124458 0.00609341 0.283853 -4.34551 -0.207797 -0.553918 0.264685 
944 0.600275 0.17483 0.0068153 0.231979 -4.42834 -0.0204541 0.0144044 0.498664 
945 0.624028 0.149897 0.00893062 0.694822 -4.3873 0.775356 -0.113283 -0.682846 
1705 0.624283 0.123712 0.0329569 0.271258 -4.34139 0.63566 0.17791 -0.00774896 
1744 0.599755 0.148489 0.0324593 0.389857 -4.35055 0.0492324 0.691634 0.723565 
1745 0.626065 0.174394 0.0362957 0.848589 -4.31654 -0.64013 0.172482 -0.715731 
906 0.650113 0.126222 0.00697792 0.602113 -4.39574 -0.194145 -0.755626 0.669071 
908 0.699382 0.126364 0.00890565 0.379551 -4.38399 0.730955 -0.295877 -0.186678 
946 0.648419 0.174599 0.00813234 0.550217 -4.38298 0.61348 -0.57961 -0.442821 
947 0.675425 0.150669 0.00847828 0.445647 -4.37348 -0.455873 -0.324329 -0.00652171 
948 0.700695 0.173748 0.00847896 0.442315 -4.37963 -0.462551 0.34153 -0.933349 
1707 0.67529 0.12457 0.0337815 0.126936 -4.34797 -0.484459 0.233418 0.149221 
1746 0.649982 0.148894 0.0343085 0.234448 -4.35202 0.180981 0.356995 0.023011 
1747 0.67504 0.17535 0.0325031 0.449938 -4.32367 0.00457414 -0.812171 0.50968 
1748 0.70114 0.149429 0.0343913 0.301259 -4.36179 -0.433664 0.356345 0.0773705 
146 0.650443 0.146858 0.980015 14.4159 -3.71228 -0.35771 0.758782 0.369351 
910 0.749622 0.12583 0.00669665 0.356316 -4.37826 -0.0314419 -0.571663 0.404176 
949 0.725534 0.151733 0.00727859 0.653296 -4.35387 -0.190555 -1.16663 0.220089 
1709 0.725948 0.125111 0.0338461 0.264927 -4.37739 -0.313002 0.115393 -0.367676 
1749 0.725166 0.175264 0.0334738 0.136496 -4.36464 0.415443 0.000520674 0.0222511 
1750 0.749906 0.15034 0.0323877 0.259375 -4.34497 0.0576104 -0.164957 0.679667 
912 0.798509 0.124936 0.0084924 0.385312 -4.37291 0.819442 -0.194742 -0.0969421 
951 0.77523 0.150668 0.00713665 0.332701 -4.40094 0.189642 -0.0400707 0.162261 
952 0.800913 0.175237 0.0065879 0.313899 -4.40833 -0.954107 0.0691283 -0.106895 
1711 0.773035 0.123213 0.0321687 0.995621 -4.31623 0.690066 0.869801 1.02586 
1751 0.774472 0.17553 0.0340426 0.244349 -4.36847 -0.019777 0.075985 -0.192937 
1752 0.798915 0.150119 0.0342438 0.168003 -4.34644 -0.0327341 -0.341408 -0.0856936 
914 0.850811 0.126076 0.00807589 0.184607 -4.40606 -0.398416 -0.10439 0.0838751 
953 0.824008 0.150793 0.00744742 0.248626 -4.39517 0.278213 -0.840541 0.341799 
954 0.848221 0.174688 0.00682106 0.427734 -4.39794 0.869854 -0.00190676 0.40193 
955 0.874375 0.150295 0.00647221 0.2348 -4.37864 0.455517 0.405216 0.371462 
1713 0.825204 0.124139 0.0341769 0.323845 -4.3375 -0.267194 0.823018 -0.257391 
1715 0.876238 0.124724 0.0344481 0.504068 -4.34687 -0.150159 0.744731 -0.16465 
1753 0.824603 0.175953 0.0334678 0.125772 -4.35812 -0.196866 -0.298325 0.0763832 
1754 0.850438 0.149842 0.0349546 0.451753 -4.3338 -0.490068 -0.0223382 -1.04111 
1755 0.874801 0.173703 0.0339523 0.778055 -4.27186 -0.349678 1.3972 -0.806244 
916 0.899799 0.126752 0.00488284 0.776005 -4.33925 0.0183173 -0.27913 0.965329 
956 0.90012 0.177207 0.00602461 0.603274 -4.36118 -0.523809 -0.879331 0.455471 
957 0.923917 0.150991 0.00573691 0.511721 -4.34364 0.321316 -0.267654 1.27557 
1717 0.924043 0.126539 0.0334139 0.187757 -4.36266 -0.258542 0.162597 -0.168445 
1756 0.899032 0.151233 0.0322553 0.224797 -4.32888 0.340771 -0.480598 0.446429 
1757 0.922899 0.176231 0.032999 0.309406 -4.38179 0.453183 -0.493878 0.297235 
880 1.00111 0.12637 0.00762883 0.362434 -4.41746 -0.35056 -0.353732 0.615175 
1720 1.0011 0.151439 0.0335742 0.168865 -4.35485 -0.47541 -0.270017 0.0374538 
918 0.950631 0.125977 0.00813043 0.143368 -4.37419 -0.822079 0.0877335 0.453615 
958 0.950013 0.175963 0.00912613 0.297555 -4.40604 -0.310905 -0.24512 -0.353902 
959 0.9751 0.150958 0.00957995 0.190999 -4.40351 0.211141 -0.0409353 -0.370056 
1719 0.973968 0.125762 0.0339599 0.308504 -4.32624 0.866074 0.46472 0.463902 
1758 0.949351 0.150336 0.0339595 0.147146 -4.36377 -0.368447 0.492555 -0.111053 
1759 0.974979 0.175751 0.0328167 0.148741 -4.32867 -0.0782344 0.216371 0.831364 
961 0.0247566 0.201236 0.00617801 0.278507 -4.37707 -0.322877 -0.221955 0.499016 
962 0.0481973 0.224051 0.00800322 0.793173 -4.36435 0.514264 0.747875 -0.677966 
1761 0.0240282 0.22553 0.0346733 0.566538 -4.34673 0.422968 0.202362 -0.691989 
1762 0.0498867 0.200922 0.0337934 0.170537 -4.32753 -0.139195 -0.0670134 0.124864 
963 0.0749247 0.201562 0.00876376 0.417909 -4.39008 -0.357273 -0.365473 -0.913014 
964 0.0994659 0.225126 0.00761869 0.275667 -4.37836 -0.107805 0.73802 0.112171 
1763 0.0731467 0.225089 0.0336473 0.409881 -4.33363 0.919996 0.877649 0.177581 
1764 0.0993284 0.201688 0.0334727 0.22668 -4.36306 0.125247 -0.613929 0.0429623 
166 0.148149 0.201123 0.980917 16.5863 -3.77363 0.128336 0.322168 0.311173 
965 0.123855 0.199384 0.00702489 0.300684 -4.38062 0.340868 0.634092 0.203953 
966 0.149664 0.22645 0.00754272 0.30708 -4.35528 -0.36371 -1.19534 0.132114 
967 0.175691 0.200009 0.00739776 0.393399 -4.38329 -0.608612 0.321171 0.120301 
1765 0.124699 0.224512 0.0332657 0.22763 -4.3702 0.129917 0.257026 -0.36197 
1766 0.150235 0.200304 0.0327514 0.093008 -4.38346 -0.162396 -0.0979023 0.147375 
1767 0.1745 0.224981 0.0337101 0.200954 -4.35636 0.642481 -0.0397637 -0.342795 
168 0.199314 0.200142 0.9811 17.0593 -3.78394 0.280443 0.0391114 -0.204495 
968 0.200738 0.224946 0.00714268 0.147387 -4.36717 -0.383854 -0.213526 0.139326 
969 0.224769 0.198616 0.00665437 0.294954 -4.4139 0.00220061 0.0402551 0.0917578 
1768 0.199291 0.200961 0.0335439 0.380068 -4.32426 0.593512 -0.390117 -0.415569 
1769 0.225603 0.223133 0.0311562 0.803302 -4.32021 0.0291182 0.668896 1.11611 
970 0.251195 0.223315 0.00707799 0.247563 -4.42216 -0.159619 0.441769 -0.220177 
971 0.275974 0.200378 0.00557266 0.555105 -4.36428 -0.0354898 -0.56063 0.67454 
1770 0.24978 0.199589 0.0342678 0.280663 -4.30431 0.129516 -0.287573 -0.390834 
1771 0.275489 0.222887 0.0339415 0.333107 -4.35801 -0.0972455 0.524804 -0.437102 
972 0.300231 0.225246 0.00721132 0.463308 -4.36549 0.000452488 -0.293643 -0.703664 
973 0.326302 0.198038 0.00893469 0.808013 -4.36293 -0.679354 0.954624 -0.774151 
974 0.351746 0.224319 0.00726875 0.643734 -4.34263 -1.34748 0.4186 -0.187455 
1772 0.300703 0.199834 0.0327624 0.297048 -4.35551 -0.631581 -0.470335 0.164755 
1773 0.325075 0.225175 0.0310887 0.632556 -4.34439 0.47001 -0.163548 0.764053 
1774 0.350457 0.197915 0.0323348 0.366196 -4.3305 -0.0418322 0.664895 0.727848 
975 0.374308 0.200068 0.00767076 0.318949 -4.37732 0.806053 -0.733325 -0.500543 
976 0.400521 0.224326 0.00754636 0.182774 -4.40545 -0.505556 -0.194264 -0.495312 
1775 0.375155 0.224255 0.0328997 0.084428 -4.34096 0.0750083 0.30015 0.408891 
1776 0.399422 0.198762 0.0321163 0.413368 -4.36733 0.393571 0.261258 0.495172 
977 0.427223 0.199234 0.00662462 0.590608 -4.3895 -0.907958 0.0408681 0.296726 
978 0.450496 0.223798 0.00647484 0.205967 -4.40091 0.117473 0.244522 0.203839 
1777 0.425109 0.225014 0.0326191 0.151086 -4.3933 -0.0816351 -0.363388 0.398639 
1778 0.449482 0.199277 0.0339909 0.137737 -4.33899 0.298593 0.128009 -0.0811137 
178 0.449733 0.199353 0.979976 16.0541 -3.7413 -0.0565334 -0.35076 0.160148 
979 0.475982 0.198014 0.00932846 0.945027 -4.39369 -0.703677 0.633009 -0.793564 
980 0.5008 0.222869 0.00606031 0.225312 -4.4019 -0.392678 0.0597683 0.190438 
981 0.526941 0.198751 0.00684093 0.280005 -4.41522 -0.234195 -0.0603194 -0.0513631 
1779 0.474762 0.225374 0.0338602 0.581193 -4.33538 -0.00477569 -0.730344 -0.439138 
1780 0.501741 0.199577 0.0322041 0.680484 -4.28202 -0.997029 -0.582924 0.550956 
1781 0.524863 0.223201 0.0324627 0.119524 -4.34193 0.27835 0.487943 0.272262 
982 0.549919 0.224615 0.00679141 0.129888 -4.42736 0.11606 0.0254555 -0.168187 
983 0.574382 0.199243 0.00573202 0.267894 -4.3846 0.405278 0.126445 0.184127 
1782 0.551853 0.198992 0.0332867 0.397041 -4.36474 -0.719206 0.314179 -0.0191965 
1783 0.575509 0.225099 0.0310902 0.663034 -4.34961 -0.234638 -0.436416 0.956737 
183 0.57384 0.225322 0.980324 15.1449 -3.79405 0.477782 -0.280785 0.176297 