ITEM: TIMESTEP
1250
ITEM: NUMBER OF ATOMS
28567
ITEM: BOX BOUNDS pp pp pp
3.4923785274045827e-02 7.0365076214726543e+01
6.0994451292032181e-02 7.0339005548708116e+01
2.2185724550678900e+00 6.8181427544932433e+01
ITEM: ATOMS id xs ys zs c_csym c_peratom fx fy fz 
1601 0.0260527 0.0260665 0.0198422 0.210243 -4.36874 -0.323005 0.186436 -0.374833 
1642 0.0507379 0.0517294 0.0209859 0.19366 -4.33956 -0.472146 0.0811567 0.0869264 
1602 0.0492711 -0.000336778 0.0196734 0.386773 -4.32656 0.383905 0.77037 0.00648068 
2402 0.0504067 0.0264827 0.0473559 0.265772 -4.36451 -0.0387466 -0.126792 -0.242145 
2441 0.0245384 0.0496992 0.0474946 0.243472 -4.34064 -0.0667824 0.34835 -0.182812 
2401 0.0260138 0.999978 0.045226 0.399669 -4.34349 -0.79418 0.303884 0.0427704 
1603 0.0751936 0.0273324 0.0212917 0.287011 -4.34893 -0.290048 -1.11829 -0.0565546 
1644 0.0991793 0.0516976 0.0225969 0.293746 -4.34764 0.816217 0.0678084 -0.548926 
1604 0.101014 0.00181037 0.020687 0.162008 -4.34665 -0.495199 -0.117912 0.0541578 
2404 0.0999592 0.0258327 0.047637 0.138295 -4.35211 0.474529 -0.297379 -0.118409 
2443 0.0767914 0.0496998 0.0492541 0.816312 -4.26788 -1.07133 1.19806 -0.544838 
1605 0.125261 0.0271311 0.0205452 0.177088 -4.3681 -0.0987161 0.155218 0.386955 
1606 0.149974 1.00267 0.0215593 0.543603 -4.35992 -0.00942229 -0.514309 -0.5179 
1607 0.175613 0.0268473 0.0211951 0.342235 -4.33739 -0.605971 -0.451293 -0.0474225 
1646 0.150478 0.0511927 0.0222904 0.197215 -4.35744 -0.0594831 0.163468 -0.518537 
2406 0.150588 0.0250271 0.0483257 0.18438 -4.35656 -0.410319 0.193795 0.0218966 
2445 0.126129 0.0505049 0.0483558 0.24463 -4.36666 -0.656252 0.254565 -0.112031 
2447 0.173954 0.050477 0.0483128 0.259178 -4.34186 0.413472 0.57632 0.0608816 
2405 0.125633 0.000533419 0.0475873 0.0982984 -4.38687 0.0493695 -0.0914406 -0.176761 
808 0.198711 0.025125 0.993738 0.109705 -4.42047 0.615989 0.414564 0.0788628 
1609 0.224363 0.0244079 0.020808 0.255613 -4.36526 -0.0527844 0.661729 -0.247388 
1648 0.200034 0.0500731 0.0221854 0.467485 -4.32516 -0.526222 0.441289 -0.855666 
2408 0.198372 0.0254492 0.0471727 0.20737 -4.3411 0.434593 -0.547973 0.201665 
2449 0.22456 0.0497638 0.0454941 0.532534 -4.31265 0.0110621 0.239208 0.856952 
811 0.272965 1.0022 0.992537 0.647241 -4.40211 -0.180467 -0.677419 -0.0583455 
851 0.274119 0.0498394 0.991126 0.691187 -4.37141 -0.933156 -0.0812521 0.490226 
1611 0.272378 0.0267355 0.0206822 0.741488 -4.33718 0.504477 -0.643067 -0.635191 
1650 0.249621 0.0516143 0.0201469 0.542442 -4.33275 -0.684319 -0.742035 -0.561335 
2410 0.248813 0.0255137 0.048406 0.486214 -4.29483 0.0793062 -0.2559 -1.07771 
2451 0.274134 0.049999 0.0467673 0.184139 -4.37173 0.0930805 0.0607378 0.0567171 
2411 0.274333 0.000609088 0.0455181 0.140082 -4.35999 0.0318336 -0.0562398 0.436174 
812 0.298149 0.0255813 0.991129 0.199373 -4.36012 -0.213984 0.198958 -0.0291843 
814 0.348804 0.0252678 0.989685 0.248105 -4.40409 -0.0966203 -0.16812 -0.523906 
853 0.32318 0.0503421 0.989522 0.259094 -4.38277 0.545522 0.403549 0.239238 
1613 0.322941 0.0259477 0.0151583 0.917197 -4.31344 0.703605 -0.424883 1.0645 
1614 0.349417 0.999866 0.0154209 0.329786 -4.32117 -0.201108 -0.00824814 0.714021 
1652 0.298398 0.0496593 0.0179022 0.133071 -4.36747 0.0999186 0.336235 0.199763 
1654 0.348415 0.0491795 0.0175076 0.219602 -4.32048 -0.181147 0.875467 -0.0452147 
1612 0.297649 -0.000341966 0.0188602 0.359243 -4.35214 0.535856 0.456401 -0.565591 
2412 0.300189 0.0241019 0.0441855 0.5899 -4.34447 -0.256585 0.749506 0.165471 
2414 0.34971 0.0244937 0.0441856 0.241056 -4.33576 -0.653562 0.266699 -0.0163922 
2453 0.324188 0.0495776 0.0454168 0.0931677 -4.36493 -0.140572 0.0870449 -0.198246 
815 0.372912 0.998682 0.989991 0.313607 -4.37262 0.320846 0.887365 -0.502998 
816 0.398179 0.0246148 0.990062 0.118131 -4.4094 -0.256696 0.101453 -0.36115 
855 0.374354 0.0501821 0.989578 0.133788 -4.39442 -0.199952 0.0215325 0.0574996 
1615 0.372062 0.0267889 0.0166838 0.976077 -4.29371 0.987811 -1.23193 0.0364482 
1656 0.398477 0.0488639 0.0174613 0.300493 -4.36297 -0.23576 0.446291 0.391614 
2416 0.396982 0.0225948 0.0441872 0.564984 -4.36045 0.273891 1.0176 0.109748 
2455 0.374189 0.0501984 0.0447455 0.433742 -4.3404 -0.682002 -0.326936 0.333109 
857 0.423289 0.050334 0.992403 0.190599 -4.37498 -0.270541 -0.308932 -0.61827 
1617 0.422481 0.0248602 0.0171665 0.15111 -4.35761 0.326055 -0.406024 0.52811 
1658 0.446688 0.0501338 0.0203325 0.211159 -4.36495 0.475273 0.13256 -0.56745 
2418 0.448018 0.0243991 0.0457674 0.158396 -4.34947 -0.508469 0.275851 -0.312108 
2457 0.422295 0.049354 0.0450787 0.12455 -4.36802 -0.150828 -0.213684 0.587861 
820 0.496993 0.0262216 0.994716 0.892238 -4.35909 0.630473 -0.647136 -1.1411 
859 0.472862 0.051461 0.994203 0.274361 -4.37171 -0.260672 -0.339781 -0.516563 
1619 0.471883 0.0254545 0.0187827 0.171643 -4.3489 -0.0483553 -0.360905 0.0474406 
1621 0.522258 0.022916 0.0202003 0.615679 -4.33203 -0.002421 0.838746 -0.0527723 
1660 0.497245 0.0500031 0.019385 0.177911 -4.33693 0.564289 -0.0364466 0.525308 
2420 0.49631 0.0246115 0.0451926 0.364536 -4.36783 0.461129 -0.399473 0.65803 
2459 0.471661 0.0494565 0.0459513 0.209386 -4.37299 0.486635 0.192044 0.459193 
2461 0.521275 0.0479942 0.0466954 0.541082 -4.30595 0.112117 0.553168 0.633103 
1623 0.571886 0.0256952 0.0215126 0.158252 -4.36441 0.352192 -0.182343 0.0228153 
1662 0.546572 0.0491967 0.0231704 0.534828 -4.32209 0.45831 0.298915 -0.927522 
2422 0.546727 0.0254825 0.0480953 0.232523 -4.32905 0.576863 -0.476579 0.0736581 
2463 0.572653 0.0503328 0.0488813 0.144905 -4.3658 -0.0502364 -0.109659 0.271557 
824 0.597956 0.0275075 0.994896 0.371289 -4.38748 -0.282366 -0.91294 0.142892 
1625 0.622107 0.0256893 0.0207423 0.253132 -4.34398 0.0422284 0.417033 0.630612 
1664 0.596578 0.051602 0.0229076 0.175578 -4.36501 0.481756 -0.110291 0.177625 
1624 0.598717 0.000973124 0.0209076 0.116322 -4.35936 -0.154125 -0.4489 -0.233574 
2424 0.598012 0.0240866 0.0478415 0.359575 -4.34331 -0.0681995 0.88545 0.134543 
2465 0.62298 0.0509523 0.0498438 0.172466 -4.36702 -0.617558 0.179798 -0.710237 
2425 0.623584 -3.29418e-05 0.048218 0.353467 -4.36449 -0.00533832 0.385789 -0.509637 
1626 0.647693 1.0022 0.0198096 0.172486 -4.34803 0.450987 -0.409241 0.262553 
1627 0.672698 0.02723 0.0205401 0.154366 -4.33727 0.0420225 -0.405174 0.0378527 
1628 0.698526 0.0013846 0.0183146 0.261734 -4.3499 -0.163269 0.351546 -0.100912 
1666 0.646651 0.0514522 0.0218055 0.170421 -4.38109 0.231919 0.063666 0.25557 
1668 0.695196 0.0519457 0.0225761 1.18711 -4.29966 0.942021 0.467311 -0.488346 
2426 0.648553 0.0268586 0.0472442 0.200597 -4.37412 -0.439428 -0.643175 0.163742 
2428 0.698965 0.0258008 0.0448772 0.474528 -4.32491 -0.277892 0.133389 0.934918 
2467 0.672592 0.0510755 0.0500904 0.475563 -4.32023 0.408083 0.468803 -0.817678 
2427 0.673574 0.00153858 0.0458288 0.0908554 -4.36153 -0.106886 0.0360723 0.24133 
1629 0.721823 0.0279136 0.0176084 0.462564 -4.35091 0.842148 0.33692 0.273111 
1670 0.748722 0.0534577 0.0175363 0.226242 -4.34221 -0.0420449 -0.403698 0.340525 
2430 0.749661 0.0262433 0.0449903 0.482903 -4.32528 -0.369277 0.782873 -0.659771 
2469 0.723773 0.0524684 0.0458381 0.385322 -4.3649 -0.11987 -0.738323 0.0792666 
1631 0.773777 0.0295645 0.0154014 0.328413 -4.31294 0.0468049 -0.801565 0.0810609 
1672 0.797657 0.0552254 0.0157702 0.339681 -4.33248 0.570373 -0.49053 0.275017 
2432 0.79849 0.0263808 0.0410836 0.720962 -4.32682 0.471626 0.0872341 0.654721 
2471 0.774334 0.052907 0.0434569 0.262157 -4.36778 -0.582587 -0.377253 0.229865 
1633 0.82288 0.027561 0.0143801 0.414915 -4.3278 -0.0426991 -0.0508214 0.221468 
1635 0.87441 0.0262586 0.0162661 0.723159 -4.29105 -0.686134 0.425611 -0.234406 
1674 0.848451 0.0524237 0.0174819 0.487613 -4.3464 -0.0436099 -0.213669 -0.677663 
2434 0.848818 0.0281788 0.0431443 0.336137 -4.32032 -0.37149 -0.716164 0.200713 
2473 0.822882 0.052998 0.0434369 0.315353 -4.33009 0.20949 -0.535128 0.228283 
2475 0.873947 0.0525946 0.0430694 0.304972 -4.3731 -0.0365145 -0.260421 0.603464 
1637 0.923834 0.0269748 0.0183842 0.211694 -4.35276 -0.367147 0.0124056 -0.531021 
1676 0.898473 0.0511175 0.0181882 0.256811 -4.36225 0.0506136 0.556055 0.0715902 
1636 0.89827 0.0020864 0.0151774 0.231539 -4.35356 -0.198538 -0.00939274 -0.191635 
2436 0.89827 0.0253329 0.0434467 0.278935 -4.35219 0.229517 0.468152 0.453054 
2477 0.924064 0.0515003 0.0446596 0.0921336 -4.35446 -0.117085 -0.336298 0.0826966 
1600 -0.000144408 1.00172 0.0184297 0.271767 -4.37371 0.112335 0.086826 0.029224 
1640 0.000273763 0.0505012 0.0189873 0.237938 -4.35735 -0.0269809 0.206016 0.20178 
1639 0.97486 0.0272192 0.016324 0.640549 -4.33637 0.434851 -0.091644 0.8991 
1678 0.949755 0.0523206 0.0183916 0.14764 -4.3504 0.201611 -0.273756 0.410352 
2400 0.000210534 0.0247863 0.0461771 0.269581 -4.33284 -0.192812 0.583615 0.0602807 
2438 0.949527 0.0263134 0.0441733 0.225501 -4.34819 0.112372 0.0836271 0.76161 
2479 0.975413 0.0514047 0.0477084 0.401277 -4.34012 0.00429613 -0.632881 -0.598324 
1641 0.0255311 0.0760103 0.0225108 0.375437 -4.34354 -0.414286 -0.553538 -0.773841 
1682 0.0496334 0.0994493 0.0240543 1.08057 -4.30614 -0.0701323 0.89676 -0.83315 
1680 1.00001 0.100831 0.0208343 0.163993 -4.37522 -0.17858 0.355279 0.0869617 
2442 0.0496057 0.0741778 0.0502151 0.743044 -4.33142 0.548241 0.34203 -0.750213 
2481 0.0239311 0.100297 0.0469189 0.369708 -4.33599 0.141868 0.406205 0.840254 
1643 0.0745652 0.0763862 0.0222481 0.270884 -4.35857 0.235523 -0.16956 0.103531 
1684 0.0997079 0.102365 0.0215371 0.211348 -4.3533 0.15008 -0.471165 0.664543 
2444 0.100261 0.0768321 0.048031 0.185211 -4.35047 0.00563378 -0.236153 -0.0572615 
2483 0.0745922 0.101564 0.0474943 0.33823 -4.35002 0.174638 -0.178484 0.748841 
1645 0.12627 0.0762395 0.0224351 0.251844 -4.34912 -0.777092 -0.140718 0.0514883 
1647 0.176772 0.0764813 0.021567 0.493489 -4.38941 -0.658816 -0.252199 0.0926651 
1686 0.150118 0.101148 0.0229313 0.148682 -4.33744 -0.0240833 -0.130828 -0.52504 
2446 0.151055 0.0767524 0.0480879 0.221862 -4.34896 -0.19486 -0.245631 0.274308 
2485 0.125312 0.100731 0.0495293 0.131012 -4.32987 -0.371043 0.262993 -0.3909 
2487 0.175873 0.102205 0.048045 0.405815 -4.37872 -0.261408 -0.257976 0.248327 
889 0.224769 0.10049 0.992575 0.426464 -4.37367 -0.958899 0.365204 0.756871 
1649 0.2232 0.0754121 0.0207932 0.320922 -4.34736 0.240124 0.0313318 -0.413396 
1688 0.201228 0.101196 0.0220599 0.48332 -4.344 -0.512578 0.0585815 -0.977913 
2448 0.201188 0.0768456 0.0487029 0.562422 -4.33359 -0.905024 -0.719866 -0.224661 
2489 0.224729 0.100916 0.0478505 0.17411 -4.31897 0.524895 -0.184158 0.500325 
850 0.246371 0.0755709 0.991758 0.546639 -4.34642 0.77806 -0.304379 0.390273 
891 0.272816 0.0995879 0.993463 0.285654 -4.36731 -0.333394 0.13155 -0.390538 
1651 0.272962 0.0752749 0.019084 0.281787 -4.37295 0.488133 0.0169511 -0.387265 
1690 0.247469 0.0995768 0.0210813 0.460432 -4.35627 0.649479 0.432145 -0.354577 
2450 0.248993 0.0747456 0.046522 0.179676 -4.37929 -0.101251 0.226203 0.837954 
2491 0.27473 0.09789 0.0477351 0.484417 -4.33846 -0.389734 0.922224 -0.424779 
852 0.298932 0.0747749 0.991709 0.259767 -4.39285 0.0829592 0.789729 0.307615 
854 0.350128 0.0750013 0.990629 0.163106 -4.39451 -0.371469 -0.0116859 0.13543 
893 0.32564 0.100239 0.992281 0.410771 -4.38938 -0.615583 0.107163 -0.53491 
1653 0.32438 0.0749645 0.0173858 0.176485 -4.36169 0.10889 -0.430482 0.272267 
1692 0.300639 0.0997085 0.0189618 0.614087 -4.3114 -0.968874 -0.538238 0.116539 
1694 0.349432 0.100334 0.018827 0.154232 -4.37572 -0.172711 -0.369796 0.141759 
2452 0.298134 0.0738083 0.044438 0.617501 -4.32808 0.846727 0.317742 0.612808 
2454 0.348047 0.0747801 0.0460062 0.102971 -4.35098 0.514364 -0.303693 -0.23549 
2493 0.323935 0.0979743 0.0465929 0.308696 -4.35879 -0.266153 0.562064 0.209926 
856 0.399399 0.0745029 0.991276 0.276884 -4.41421 -0.440284 0.435885 0.107164 
895 0.373877 0.100395 0.991254 0.102247 -4.42539 0.291589 0.140129 0.121213 
1655 0.373984 0.0748776 0.0184207 0.0310382 -4.382 -0.312505 0.00564378 -0.255418 
1696 0.399106 0.100236 0.0192056 0.35692 -4.32205 -0.765228 0.0954821 0.0688501 
2456 0.396983 0.0750404 0.0449221 0.274658 -4.31828 0.248497 0.106541 0.887587 
2495 0.373205 0.100346 0.0467693 0.0998772 -4.36097 0.0364628 -0.561193 -0.163844 
858 0.445921 0.0752441 0.993172 0.523718 -4.39487 0.619582 0.831157 0.268403 
897 0.421247 0.100527 0.991428 0.575458 -4.38737 0.666991 0.280484 0.0876691 
1657 0.422514 0.0752253 0.0213288 0.590017 -4.34539 0.0386551 0.0859451 -0.78599 
1698 0.446531 0.100846 0.0198136 0.322052 -4.37515 0.253606 -0.248679 0.455086 
2458 0.447565 0.0745761 0.0476395 0.172991 -4.36336 -0.0740533 0.0973937 -0.360924 
2497 0.421806 0.10029 0.0475104 0.141971 -4.35002 0.0274902 -0.132909 0.134382 
899 0.472924 0.100602 0.995027 0.254238 -4.39581 -0.427701 -0.250624 -0.58444 
901 0.523349 0.0993558 0.996543 0.493604 -4.36409 -0.703824 1.11584 -0.0319141 
1659 0.473552 0.0753759 0.0199675 0.385938 -4.33386 -1.10952 0.00734131 0.60568 
1661 0.522533 0.0753364 0.0212638 0.21542 -4.33861 -0.114157 -0.192991 0.823385 
1700 0.496871 0.100892 0.0223689 0.182255 -4.36869 0.508062 -0.0763368 -0.0386934 
2460 0.497831 0.0730973 0.0479133 0.524947 -4.36736 -0.254954 0.677388 -0.210302 
2499 0.471864 0.0999293 0.0470526 0.176578 -4.36995 0.0250777 0.311563 0.18496 
2501 0.52156 0.101345 0.0500045 0.441227 -4.34449 -0.167948 -0.801885 -0.55574 
862 0.548171 0.0756585 0.997144 0.436008 -4.37564 -0.143109 -0.459459 -0.698907 
903 0.571449 0.101882 0.99679 0.156365 -4.37881 -0.0648527 -0.304096 0.183992 
1663 0.571617 0.0757443 0.0223029 0.162441 -4.33807 0.0891519 0.0556328 0.684336 
1702 0.547091 0.100842 0.0236128 0.124132 -4.38029 -0.147873 -0.0156092 0.178509 
2462 0.546756 0.0739814 0.0490931 0.183961 -4.39288 -0.0656433 0.380227 0.00386943 
2503 0.571952 0.10092 0.0515965 0.382725 -4.29858 -0.7607 -0.860384 -0.822759 
864 0.595958 0.0771309 0.996247 0.135772 -4.42229 0.0488436 -0.0719129 -0.245297 
905 0.619914 0.101774 0.996396 0.252042 -4.39143 -0.273214 -0.020737 -0.276885 
1665 0.622983 0.0767459 0.0228927 0.430256 -4.32214 -1.1435 -0.282112 0.5872 
1704 0.59618 0.101356 0.0239684 0.11455 -4.40618 0.113763 -0.248014 0.027809 
2464 0.596127 0.077012 0.0507729 0.539723 -4.29811 0.536285 -1.07953 -0.933116 
2505 0.62319 0.100107 0.0491319 0.783163 -4.29456 -1.20784 0.606757 1.09168 
1667 0.670051 0.0768074 0.0225573 0.359276 -4.35508 0.268047 -0.0236171 0.240952 
1706 0.64456 0.102802 0.0231167 0.646413 -4.28464 1.4857 -0.233174 -0.326009 
1708 0.695475 0.100954 0.0224044 0.366612 -4.36939 0.14521 0.491748 -0.0300199 
2466 0.647345 0.0770427 0.0508915 0.384659 -4.3389 0.12362 -0.564791 -0.580137 
2468 0.699401 0.0769813 0.0489218 0.683206 -4.33771 -1.26321 -0.463621 -0.266538 
2507 0.67145 0.101051 0.0498922 0.103201 -4.37592 0.156429 0.00478551 0.0157067 
1669 0.722918 0.0769629 0.019406 0.759544 -4.32198 -0.610352 0.56465 0.539277 
1710 0.744585 0.103753 0.0204269 0.27618 -4.37511 0.150373 -0.0286103 0.0472111 
2470 0.747145 0.0767674 0.0460254 0.195175 -4.36343 0.0769428 0.323844 0.349286 
2509 0.72067 0.101955 0.0492755 0.386002 -4.33058 0.919268 0.485451 -0.66272 
1671 0.771126 0.0800078 0.0187017 0.458959 -4.37992 0.19423 -0.287994 -0.0650603 
1712 0.797288 0.104311 0.0207167 0.305369 -4.34663 0.288865 0.00133707 -0.351974 
2472 0.798089 0.0774523 0.0427121 0.701363 -4.33855 0.295472 0.259094 0.815198 
2511 0.771798 0.101609 0.0473884 0.349987 -4.36052 -0.182899 0.601412 -0.495913 
1673 0.825234 0.0785593 0.0175991 0.659317 -4.33806 -0.657132 0.587449 0.0255543 
1675 0.872425 0.077187 0.0169559 0.649612 -4.34089 0.43058 0.357301 0.701514 
1714 0.848257 0.104444 0.0178219 0.489479 -4.32168 0.199274 -0.427282 0.319482 
2474 0.848405 0.0771926 0.0443809 0.177242 -4.35515 -0.205166 -0.0022013 0.723311 
2513 0.82343 0.102652 0.045959 0.278631 -4.38479 -0.113658 -0.224769 0.111921 
2515 0.872573 0.100595 0.0456982 0.435833 -4.34975 0.368815 0.185012 0.19912 
1677 0.925074 0.0764551 0.0191321 0.175835 -4.36485 -0.505273 0.296711 -0.195924 
1716 0.899547 0.101028 0.0202877 0.584511 -4.30368 -0.113408 0.680209 -0.0662467 
2476 0.899439 0.0774065 0.0454295 0.248515 -4.35893 -0.176892 -0.251207 0.0156117 
2517 0.925465 0.101776 0.0471773 0.289661 -4.35454 -0.488533 0.104729 -0.383852 
1679 0.97609 0.0763827 0.0208319 0.360824 -4.35147 -0.4107 -0.115753 -0.151229 
1718 0.950835 0.101346 0.0205877 0.257488 -4.34657 -0.574009 0.152357 0.00697403 
2440 -9.16057e-05 0.0754277 0.0485142 0.196005 -4.33071 -0.106962 -0.281043 -0.512193 
2478 0.948804 0.0755511 0.0451663 0.558493 -4.32602 0.939012 0.56559 0.694585 
2519 0.974981 0.101911 0.0477786 0.143105 -4.37027 -0.298745 -0.360119 -0.16891 
1681 0.0241975 0.126854 0.0225816 0.313429 -4.38011 0.666081 0.166621 -0.397547 
1721 0.0250553 0.176636 0.0229557 0.303368 -4.33032 0.284008 0.402751 -0.163942 
1722 0.0499068 0.153321 0.0226274 0.380792 -4.35415 -0.199562 -0.515576 0.133981 
2482 0.0496849 0.126604 0.0485171 0.167496 -4.36331 -0.187369 0.0981705 -0.0119262 
2521 0.0232459 0.152173 0.0491234 0.418278 -4.32767 0.917632 -0.259755 -0.0593919 
2522 0.0491996 0.175883 0.0517712 0.988548 -4.30204 0.466091 0.258514 -1.4415 
2520 1.00029 0.177896 0.0491331 0.206555 -4.39469 -0.258101 -0.120815 -0.202743 
1683 0.0728239 0.126543 0.0221136 0.711402 -4.32296 1.00066 0.628219 0.250728 
1723 0.075212 0.176394 0.0230104 0.146268 -4.34582 0.219105 0.0255748 0.517327 
1724 0.101084 0.15196 0.0235074 0.262507 -4.34113 -0.61922 -0.0912733 -0.495742 
2484 0.0986379 0.127267 0.0490573 0.492176 -4.35818 0.775899 -0.738673 0.044035 
2523 0.075187 0.151027 0.0500522 0.146226 -4.35697 -0.174908 0.365827 -0.290361 
2524 0.100959 0.175198 0.0517648 0.590587 -4.34602 -0.127555 0.310048 -0.911183 
1685 0.124722 0.126008 0.0235585 0.200281 -4.34202 0.0527137 0.0384374 -0.411957 
1687 0.173955 0.124917 0.020246 0.747837 -4.30845 0.937984 0.692494 0.757509 
1725 0.125854 0.177064 0.0234491 0.280337 -4.34258 0.0327298 -0.378079 -0.000938981 
1726 0.150592 0.149819 0.0237041 0.442547 -4.35453 0.190005 0.571317 -0.319459 
1727 0.175414 0.175752 0.0229737 0.143117 -4.35318 -0.337101 -0.0106159 -0.407302 
2486 0.149166 0.125385 0.0486576 0.420819 -4.31963 0.684852 0.0144531 0.446733 
2525 0.125812 0.151845 0.0479104 0.584061 -4.29646 -0.299931 -0.70364 0.939164 
2527 0.177396 0.148981 0.0498485 1.05651 -4.31623 -1.16672 0.247364 -0.804119 
2526 0.151109 0.175282 0.0501637 0.254385 -4.35818 0.60738 0.113455 -0.64946 
1689 0.225136 0.126651 0.0209379 0.188589 -4.34464 -0.000314423 -0.439292 -0.145842 
1728 0.201015 0.151435 0.0207404 0.364786 -4.33124 -0.803651 -0.588329 0.377266 
1729 0.224679 0.176359 0.0223 0.556777 -4.34346 0.070363 -0.625922 -0.877036 
2488 0.201287 0.124925 0.0486311 0.309587 -4.31807 -0.579111 0.506957 -0.171307 
2528 0.199496 0.175221 0.0476274 0.399016 -4.34504 0.527756 0.179531 0.579898 
2529 0.225186 0.150378 0.0485681 0.0850615 -4.38312 -0.16503 -0.0954244 -0.193214 
931 0.274121 0.151098 0.992237 0.432432 -4.3407 -0.0936746 -0.792958 0.906775 
1691 0.274996 0.123449 0.0212223 0.452497 -4.3333 -0.712188 0.162548 -0.623057 
1730 0.250362 0.15009 0.0200081 0.150221 -4.34967 -0.342885 -0.132096 0.178871 
1731 0.274243 0.174551 0.0196324 0.134033 -4.35735 0.446467 0.673062 0.372067 
2490 0.249901 0.125397 0.0482857 0.188762 -4.37967 0.309479 -0.228542 -0.229588 
2530 0.248933 0.174808 0.0467702 0.265564 -4.33574 0.984175 -0.0830597 0.273188 
2531 0.275571 0.149412 0.0452714 0.766587 -4.30278 -0.689811 0.262126 1.23771 
892 0.297511 0.123349 0.992731 0.55661 -4.39434 0.358781 0.569101 0.0313974 
932 0.299605 0.175981 0.994101 0.244116 -4.38605 -0.659317 -0.231795 -0.0811092 
1693 0.3233 0.123526 0.0207755 0.24005 -4.3392 0.040344 0.381572 -0.335982 
1732 0.299411 0.149073 0.0199844 0.123479 -4.38791 -0.177214 0.101806 -0.00879787 
1733 0.323103 0.174965 0.0205556 0.0743439 -4.34078 0.31006 0.0612095 0.290611 
1734 0.345994 0.148609 0.021782 0.898792 -4.34388 0.977268 0.679328 -0.455408 
2492 0.298244 0.123682 0.0473685 0.304195 -4.35227 0.699999 -0.11246 0.340479 
2494 0.348421 0.123698 0.046928 0.262675 -4.35714 -0.308777 0.358204 0.279239 
2532 0.300087 0.175197 0.0482305 0.257026 -4.35505 -0.274771 -0.0373777 -0.545011 
2533 0.323177 0.149515 0.0479406 0.101549 -4.33939 -0.166029 -0.233414 0.110236 
2534 0.347645 0.174981 0.0490091 0.269013 -4.38006 0.272065 0.651622 -0.85304 
935 0.373244 0.152726 0.9951 0.849782 -4.32636 -0.155245 -1.41897 -0.684468 
936 0.397601 0.176249 0.99372 0.44204 -4.3943 0.476362 -0.329265 0.481124 
1695 0.373754 0.124668 0.0207649 0.293951 -4.36875 0.0784996 0.687905 -0.446692 
1735 0.373455 0.17314 0.0215856 0.82723 -4.27156 -0.852498 1.46194 0.247266 
1736 0.398812 0.152144 0.0218927 0.716704 -4.28177 -0.151677 -1.42423 -0.581583 
2496 0.396652 0.12537 0.0490286 0.312384 -4.34219 0.541915 0.0717443 -0.670127 
2535 0.372749 0.149796 0.0477547 0.243272 -4.3657 -0.319152 -0.108464 0.363168 
2536 0.396231 0.174819 0.0486433 0.511011 -4.3396 0.631673 0.402687 0.402355 
898 0.448153 0.124715 0.992171 0.590905 -4.38908 -0.38157 0.36486 0.533208 
937 0.423436 0.149959 0.99472 0.413276 -4.41502 -0.280406 0.110935 -0.00340308 
1697 0.422293 0.124744 0.022183 0.42814 -4.31479 -0.132279 0.451295 -0.883579 
1737 0.422217 0.175983 0.0224427 0.190572 -4.36145 0.559652 -0.426151 -0.181398 
1738 0.447254 0.149682 0.0218035 0.147332 -4.37796 -0.287066 -0.161517 0.143336 
2498 0.445774 0.125909 0.0498792 0.679301 -4.30459 0.741295 -0.595423 -0.946873 
2537 0.422055 0.150285 0.0480481 0.135635 -4.34874 -0.25542 -0.104379 0.434661 
2538 0.446979 0.174736 0.049351 0.101669 -4.36539 -0.205162 -0.230771 0.380747 
939 0.471867 0.150549 0.995649 0.196334 -4.42905 0.459903 -0.124178 -0.365724 
940 0.496814 0.176176 0.997909 0.385443 -4.39017 0.247461 -0.503024 -0.375213 
941 0.519815 0.150842 0.99553 0.486393 -4.3613 0.949034 0.119807 0.228231 
1699 0.472264 0.125779 0.0211667 0.11687 -4.3495 -0.452967 -0.373473 0.353391 
1701 0.521036 0.126315 0.022771 0.236087 -4.36141 0.47348 -0.448964 -0.404382 
1740 0.496242 0.150228 0.0226663 0.113244 -4.33904 0.10499 0.0677322 -0.245705 
1741 0.521511 0.175054 0.0240479 0.116917 -4.34133 0.334371 -0.0167735 -0.11094 
2500 0.496536 0.126377 0.0489418 0.263104 -4.32466 0.0741484 -0.942386 0.127647 
2539 0.47233 0.149474 0.0490068 0.182818 -4.34688 -0.823977 0.481309 0.0133503 
2540 0.497064 0.173515 0.0487454 0.496247 -4.36476 -0.516919 0.729748 0.481514 
2541 0.521829 0.149145 0.0501363 0.152026 -4.37577 0.144599 0.193484 0.243678 
902 0.547505 0.125783 0.996354 0.285644 -4.39529 -0.6456 0.50277 0.530873 
943 0.571336 0.150715 0.99728 0.225773 -4.40044 0.107929 0.0427763 0.393435 
1703 0.571485 0.125368 0.0249806 0.128107 -4.34493 -0.358954 0.250157 -0.529287 
1742 0.546514 0.150905 0.0246687 0.177954 -4.34799 -0.180362 -0.360644 -0.599971 
1743 0.570712 0.175715 0.0249915 0.210842 -4.38976 0.267153 0.0885891 -0.253257 
2502 0.546593 0.124771 0.0507756 0.0791729 -4.37308 -0.22484 0.159524 0.109059 
2542 0.546723 0.17489 0.0523729 0.197826 -4.35935 -0.434954 0.139397 -0.388051 
2543 0.570253 0.150298 0.0514165 0.13089 -4.3522 0.370252 0.0729326 0.15577 
904 0.595239 0.126406 0.996674 0.200791 -4.38724 0.164954 0.138589 0.0555934 
1705 0.620575 0.125619 0.0246584 0.231129 -4.31636 -0.346319 0.276957 -0.396161 
1744 0.595711 0.149782 0.0261043 0.58536 -4.34596 -0.0194627 0.660821 -0.79889 
1745 0.62022 0.176373 0.0237059 0.110706 -4.36773 -0.0618835 0.112802 0.025183 
2504 0.59435 0.125738 0.051404 0.600486 -4.29807 1.47755 -0.396912 0.235145 
2544 0.596715 0.176373 0.0505477 0.34616 -4.34693 -0.711258 -0.33796 -0.0484208 
2545 0.621213 0.150568 0.0510892 0.147363 -4.35702 -0.205852 -0.273339 -0.0729593 
1707 0.669793 0.127157 0.0233841 0.451355 -4.32409 -0.0803827 -0.823527 -0.585142 
1746 0.644113 0.149709 0.0240841 0.452755 -4.35889 0.378896 0.350295 -0.813285 
1747 0.669298 0.17472 0.023396 0.251359 -4.33761 -0.478695 0.501216 -0.283896 
1748 0.692544 0.150353 0.0213613 0.438574 -4.26887 0.767769 0.348361 0.466038 
2506 0.646477 0.125951 0.0510557 0.130305 -4.34679 0.0699198 -0.124759 0.167109 
2508 0.695829 0.125781 0.0495958 0.147588 -4.34443 -0.364595 0.326518 0.319737 
2546 0.645647 0.176487 0.0494293 0.339211 -4.41578 -0.0877193 -0.195782 0.275292 
2547 0.670381 0.151205 0.0500243 0.176085 -4.29851 -0.262148 -0.852671 0.435122 
2548 0.692344 0.174678 0.0507821 1.02373 -4.29639 1.58282 0.374195 -0.508763 
1709 0.71811 0.128194 0.0228415 0.531473 -4.29064 0.562467 -0.638882 -0.613266 
1749 0.718671 0.175633 0.0221766 0.151358 -4.33658 -0.421046 0.340459 0.334455 
1750 0.744003 0.153871 0.020217 0.585072 -4.32853 0.606409 -0.622335 0.621849 
2510 0.746613 0.127789 0.0481328 0.185876 -4.36699 -0.208347 -0.15958 -0.224139 
2549 0.720078 0.150421 0.0479326 0.400649 -4.31476 0.0831097 1.14765 0.822167 
2550 0.746509 0.177241 0.0487931 0.225939 -4.34012 -0.228747 -0.409286 -0.0778933 
1711 0.770676 0.127799 0.0205552 0.216166 -4.35842 -0.265394 0.39776 0.372669 
1751 0.77116 0.1767 0.0220946 0.460616 -4.3056 -0.458374 0.755232 0.104317 
1752 0.796943 0.154192 0.0208754 0.214535 -4.32011 -0.152971 -0.527742 -0.291569 
1713 0.822125 0.128847 0.0190963 0.375671 -4.33973 0.0830142 0.419688 0.118068 
2512 0.797016 0.128113 0.0480413 0.302294 -4.3251 -0.221721 -0.622818 -1.3462 
2551 0.77133 0.152452 0.0482466 0.163938 -4.35012 0.140043 -0.0364902 -0.488771 
2552 0.798436 0.177217 0.0471163 0.417874 -4.30271 -1.01449 -0.0364527 0.72401 
1715 0.875031 0.126623 0.021624 0.969934 -4.29848 -0.302861 0.889192 -0.268689 
1753 0.821525 0.178971 0.0210064 0.499764 -4.19684 0.317726 -0.808327 0.219045 
1754 0.848292 0.153942 0.0221198 0.373525 -4.31134 0.0569674 -0.336961 -0.708899 
1755 0.875147 0.17877 0.0224508 0.400155 -4.30425 -0.808332 -0.377824 -0.334824 
2514 0.847654 0.126713 0.0447321 0.523522 -4.35182 0.174217 0.28396 0.86931 
2553 0.821615 0.152199 0.0457698 0.441437 -4.33058 0.721804 0.30217 0.223541 
2554 0.849072 0.1764 0.048275 0.367273 -4.33263 -0.982139 0.428231 -0.285118 
2555 0.872899 0.152269 0.0476257 0.151721 -4.34773 0.257182 -0.400472 0.379708 
1717 0.923428 0.127906 0.0196594 0.500441 -4.35498 -0.0730947 -0.42769 0.798669 
1756 0.89771 0.154143 0.0211691 0.64161 -4.33497 0.620099 -0.819212 0.0893608 
1757 0.925515 0.17622 0.0219135 0.171426 -4.36618 -0.357287 0.199075 0.171926 
2516 0.898248 0.12625 0.0474965 0.135221 -4.35912 0.399838 -0.0347351 0.0302349 
2556 0.899468 0.176414 0.0485189 0.1169 -4.38044 0.0228254 -0.225616 0.499367 
2557 0.924333 0.150951 0.0484694 0.183587 -4.37207 -0.537111 -0.0413101 -0.476024 
1720 0.000553731 0.152854 0.021696 0.14695 -4.34798 -0.173003 -0.431458 -0.448549 
1719 0.975483 0.127378 0.0199954 0.266046 -4.37607 0.256663 0.0875241 0.51136 
1758 0.949779 0.15168 0.0208862 0.147834 -4.3597 0.428071 -0.0443845 0.542179 
1759 0.975227 0.176869 0.0221831 0.0852258 -4.35232 0.261189 0.0151954 -0.0921874 
2480 0.999239 0.127838 0.0481798 0.339074 -4.33861 -0.336502 -0.723701 0.0202805 
2518 0.949418 0.12661 0.0471144 0.108521 -4.37795 0.359842 0.0578831 -0.109165 
2558 0.949713 0.176003 0.0479181 0.191201 -4.3506 0.118278 0.055854 0.427038 
2559 0.974872 0.153257 0.048489 0.290738 -4.35053 -0.0112414 -0.998941 0.0881582 
1761 0.0251859 0.227538 0.0220225 0.244535 -4.37305 0.0281985 -0.634174 0.185906 
1762 0.0514169 0.200664 0.0229246 0.331898 -4.37358 -0.426807 0.360644 0.12637 
2561 0.0250795 0.202029 0.0481762 0.262064 -4.34499 -0.0238063 -0.254756 0.190201 
2562 0.0500797 0.225963 0.0484451 0.219856 -4.34487 0.0345715 0.585002 -0.0310595 
2560 1.00001 0.225448 0.0491244 0.226022 -4.35325 0.166075 0.275136 0.00896366 
964 0.099746 0.226727 0.997325 0.506526 -4.41069 0.420443 -0.240347 -0.711445 
1763 0.0754128 0.226799 0.0211874 0.254374 -4.30546 -0.0112729 -0.200688 0.874752 
1764 0.101775 0.200499 0.0247996 0.659319 -4.3324 -0.616393 0.49011 -0.419896 
2563 0.0765383 0.201143 0.0496767 0.222042 -4.36031 -0.119283 0.334546 -0.033682 
2564 0.101291 0.22703 0.0482782 0.480243 -4.36033 -0.675473 0.0351284 0.652661 
967 0.173206 0.201212 0.995629 0.416625 -4.40027 0.492023 -0.080171 0.665959 
1765 0.125404 0.226714 0.0231024 0.21911 -4.37083 0.0560226 0.24891 -0.0790474 
1766 0.149425 0.201456 0.0239373 0.191267 -4.37317 0.344272 0.159566 -0.0365323 
1767 0.174639 0.225811 0.0227097 0.191772 -4.35648 -0.00987291 -0.00309294 0.13463 
2565 0.125498 0.201206 0.051563 0.377574 -4.32414 0.0694431 0.0453361 -0.911415 
2566 0.148858 0.228067 0.0512833 0.992952 -4.34217 0.394388 -0.75982 -0.885491 
2567 0.176464 0.202204 0.0487161 0.434998 -4.33174 -0.889732 -0.499171 0.0689635 
968 0.198583 0.225452 0.994919 0.317295 -4.39694 0.186612 0.0192877 0.159379 
969 0.223571 0.199171 0.993762 0.295345 -4.39383 0.432969 0.498138 -0.168293 
1768 0.200399 0.200911 0.0218334 0.131415 -4.37967 -0.452509 0.016866 -0.250692 
1769 0.224535 0.2256 0.019453 0.267508 -4.33623 -0.161335 0.230105 0.693375 
2568 0.200005 0.227326 0.0494877 0.564098 -4.31733 0.573534 -0.580027 -0.572353 
2569 0.226012 0.200925 0.0464811 0.276976 -4.33847 -0.517585 0.159955 0.396289 
970 0.248593 0.226425 0.993997 0.383914 -4.32803 -0.39783 -0.619986 -0.36247 
971 0.273939 0.201683 0.993789 0.252493 -4.38623 0.138068 -0.461462 0.454917 
1770 0.249532 0.200405 0.0189724 0.359896 -4.35482 0.264788 -0.0239345 0.442644 
1771 0.275027 0.226492 0.0206738 0.212114 -4.37919 -0.136522 -0.548599 -0.245624 
2570 0.250824 0.224648 0.0468835 0.175623 -4.35925 -0.566697 0.396309 -0.416635 
2571 0.275182 0.199515 0.0479009 0.27443 -4.34961 -0.137326 -0.0536884 -1.08063 
973 0.323502 0.200127 0.993048 0.203605 -4.35721 0.689102 0.512083 0.582172 
974 0.349355 0.22625 0.993502 0.238072 -4.41384 -0.161801 -0.316563 0.310108 
1772 0.300086 0.200839 0.02009 0.150908 -4.36655 -0.536565 -0.0769035 0.157893 
1773 0.323926 0.226679 0.0199526 0.270133 -4.35884 0.53391 -0.431572 0.116578 