ITEM: TIMESTEP
1000
ITEM: NUMBER OF ATOMS
28567
ITEM: BOX BOUNDS pp pp pp
6.9903096300784284e-02 7.0330096903699939e+01
8.2530454862769886e-02 7.0317469545137556e+01
1.7788200878021265e+00 6.8621179912198187e+01
ITEM: ATOMS id xs ys zs c_csym c_peratom fx fy fz 
802 0.0505475 0.0263362 0.998798 0.308289 -4.3542 -0.602665 -0.304763 0.189184 
841 0.0241306 0.0527029 0.997801 0.440692 -4.37476 0.374346 -0.676674 0.208765 
1601 0.0225067 0.0266713 0.0256692 0.448096 -4.30422 0.710156 -0.802064 -0.974385 
1642 0.047999 0.0500747 0.0253839 0.464943 -4.33458 0.657743 0.317531 -0.00930974 
1600 0.998657 0.000401983 0.0253217 0.165068 -4.31884 0.0487346 -0.0215257 -0.597518 
1602 0.0489624 0.000324994 0.0260006 0.14405 -4.35824 0.0527307 0.331981 -0.134338 
804 0.101166 0.0243356 0.998045 0.294341 -4.39697 -0.613569 0.124644 0.384734 
843 0.0752364 0.0480183 0.997601 0.572548 -4.31537 0.173762 0.753544 0.438595 
1603 0.0746666 0.0260173 0.0264232 0.349304 -4.32212 0.0712259 -0.307317 -0.564599 
1644 0.100934 0.0494397 0.0240091 0.782585 -4.31455 -0.522776 0.301572 1.15062 
806 0.14956 0.0240018 0.000949326 0.360371 -4.40028 0.219462 0.456578 -0.545257 
807 0.174453 1.00067 -0.000242377 0.314143 -4.37117 -0.110872 -0.680047 0.511023 
845 0.125892 0.0505652 -0.00101664 0.315763 -4.39296 0.0766203 0.0830251 0.505309 
847 0.173744 0.0504457 -0.000792277 0.192257 -4.39712 -0.147783 -0.271324 0.455523 
1605 0.124686 0.0246273 0.0262011 0.0835325 -4.37619 -0.14505 -0.0121921 0.348813 
1606 0.149163 0.000121885 0.0283898 0.247818 -4.36503 0.0381179 -0.150655 -0.448348 
1607 0.174666 0.0239038 0.0259466 0.430346 -4.35039 0.19526 0.692333 0.744333 
1646 0.150003 0.0499281 0.0270195 0.205471 -4.35299 -0.216694 -0.19033 -0.316604 
805 0.125461 0.999596 0.99946 0.240265 -4.3701 -0.446232 0.093525 0.817457 
808 0.198147 0.0243382 0.998309 0.61911 -4.34655 0.677979 0.622631 0.813523 
849 0.224622 0.0491539 0.000859571 0.251719 -4.35989 -0.293316 -0.127056 -0.482096 
1609 0.222547 0.0247125 0.0261733 0.648547 -4.32438 0.267187 0.156022 0.564621 
1648 0.199377 0.0509023 0.0266619 0.29339 -4.36334 -0.41481 -0.621849 -0.191469 
810 0.250235 0.0245816 0.00162024 0.399902 -4.3865 -0.355094 0.211688 -1.06867 
811 0.273891 0.998601 0.000738393 0.560951 -4.3707 0.401483 0.775036 0.50238 
851 0.276076 0.049586 0.000154342 0.37003 -4.37235 -0.814652 0.0384564 0.328261 
1611 0.27578 0.024979 0.0279494 0.273159 -4.36483 -0.443477 -0.189614 -0.0826418 
1650 0.249083 0.0479039 0.0274253 0.454844 -4.37462 0.020702 0.689576 0.156454 
1610 0.249549 0.00167376 0.0271998 0.569292 -4.35662 -0.14287 -0.880935 0.258727 
812 0.299084 0.0257322 0.00151417 0.37604 -4.38176 0.199555 -0.922084 -0.0423296 
813 0.323664 0.000652286 0.00350813 0.657694 -4.38025 0.828823 -0.122082 -0.523807 
814 0.350114 0.0235441 0.00171681 0.089036 -4.40476 0.306145 0.335482 -0.052979 
853 0.325013 0.0474001 0.00100856 0.525251 -4.39895 -0.00328104 0.888705 0.147158 
1613 0.324586 0.024956 0.028117 0.175592 -4.36123 0.295645 -0.101871 0.0861478 
1614 0.351598 0.999349 0.0294013 0.653898 -4.31456 -1.21958 0.14395 -0.651055 
1652 0.29919 0.0500391 0.0281093 0.271331 -4.34029 0.598536 -0.0650275 -0.094547 
1654 0.350585 0.0495691 0.0279775 0.10762 -4.37008 0.126412 -0.252078 -0.0500294 
815 0.374885 0.999149 0.00267086 0.20306 -4.39762 0.127606 -0.020881 -0.372276 
816 0.399919 0.0227802 0.00306442 0.320928 -4.38807 0.815501 0.519793 -0.3012 
855 0.376395 0.0473426 0.00160275 0.417206 -4.36477 -0.546065 0.607226 -0.202309 
1615 0.375012 0.0238837 0.0289083 0.102665 -4.35644 -0.107051 0.213597 0.234668 
1616 0.400335 0.998664 0.0284585 0.102414 -4.39368 0.273428 0.034519 0.311119 
1656 0.399294 0.0481383 0.0288294 0.5026 -4.33711 0.385799 1.10761 -0.129638 
818 0.450489 0.0233947 0.00384431 0.763611 -4.37857 -0.0824916 0.392467 -0.378483 
857 0.426072 0.0506393 0.00278724 0.40519 -4.401 -0.788169 -0.422938 -0.153041 
1617 0.424311 0.0243807 0.0299056 0.372587 -4.36125 0.662981 -0.297869 -0.698331 
1618 0.450146 0.997846 0.0291947 0.389627 -4.31874 0.305403 0.906801 0.0168023 
1658 0.449157 0.0511729 0.027511 0.287915 -4.32274 0.630852 -0.0792906 0.370244 
817 0.426108 0.999362 0.00136457 0.260887 -4.36107 -0.0365566 -0.497017 0.862082 
820 0.499375 0.0248113 0.000449188 0.188264 -4.42375 -0.0549966 0.229314 0.0933398 
859 0.474238 0.0501619 0.00151716 0.172331 -4.41083 0.0587523 0.151934 0.172517 
861 0.52333 0.0504379 0.00128967 0.266476 -4.39271 0.382276 -0.124395 -0.434199 
1619 0.475 0.0253646 0.028417 0.142733 -4.34046 -0.435531 -0.303087 -0.0518203 
1621 0.523584 0.0244535 0.0274484 0.27826 -4.32953 0.33585 0.532996 -0.293508 
1660 0.499352 0.0508398 0.0277302 0.153309 -4.3721 -0.0933475 -0.231971 -0.0881469 
819 0.475111 0.999904 0.000447804 0.132566 -4.39032 0.238326 -0.363701 0.440815 
62 0.549492 0.0496649 0.97413 15.9116 -3.77444 -0.146935 0.196498 0.440682 
822 0.548329 0.0247282 0.00125417 0.282686 -4.38179 0.111112 0.139566 -0.166 
863 0.573776 0.0495232 0.00220742 0.253003 -4.38943 0.0931078 0.261904 -0.0972904 
1623 0.575262 0.0240535 0.0277101 0.359571 -4.37719 -0.425048 0.241049 -0.473135 
1662 0.549038 0.0506942 0.0263019 0.261755 -4.33258 -0.0446339 -0.212604 0.320116 
823 0.574069 0.998931 -0.000450549 0.44393 -4.34935 -0.014336 0.629544 0.881678 
1622 0.550714 0.999137 0.025831 0.526464 -4.30411 -0.968433 0.712061 0.563833 
824 0.598991 0.0242186 0.000840432 0.208193 -4.39973 0.430082 0.32557 0.326818 
825 0.625101 0.00109082 -0.000334154 0.356321 -4.36142 -0.350541 -0.123355 0.274589 
865 0.62387 0.051455 0.000354956 0.277733 -4.38551 0.0559132 -0.79485 0.101478 
1625 0.62494 0.0254067 0.0276428 0.146227 -4.36125 -0.332031 0.0445025 0.14086 
1664 0.60017 0.0502874 0.0269035 0.135903 -4.38166 -0.342555 -0.258959 -0.0634963 
1624 0.601467 0.000281982 0.027898 0.500145 -4.35026 -0.976218 0.242486 -0.226025 
826 0.648382 0.0249275 1.00076 0.577513 -4.34037 0.808988 -0.0128368 -0.910481 
828 0.701983 0.025959 0.996141 0.69183 -4.34883 -0.166634 0.0768838 0.673839 
867 0.675934 0.0493636 0.000181433 0.948926 -4.35882 -0.921997 0.104073 -1.07099 
1626 0.649662 0.00125165 0.0267522 0.154505 -4.35684 0.375304 -0.425873 0.170455 
1627 0.675671 0.02433 0.0250158 0.344897 -4.34226 0.099451 0.528811 0.457903 
1628 0.700338 0.999827 0.0255716 0.236022 -4.30377 0.136577 0.706308 0.285072 
1666 0.64971 0.0489938 0.0260782 0.371708 -4.36368 0.00123886 0.551004 0.113037 
1668 0.700587 0.0511377 0.0236179 0.290701 -4.31524 -0.116444 -0.357736 0.531114 
827 0.677394 0.00194038 -0.00131127 0.934795 -4.34148 -1.29229 -0.441179 0.229112 
830 0.74899 0.0249032 0.995327 0.534319 -4.31624 -0.0594347 0.22922 0.190236 
869 0.725854 0.0496765 0.994505 0.992992 -4.26011 -0.273873 0.4181 0.576976 
1629 0.725128 0.0253286 0.0238833 0.125787 -4.37189 0.0739382 0.323996 -0.0411855 
1670 0.750253 0.0507026 0.0242396 0.404713 -4.346 -0.291732 -0.596175 -0.294373 
1630 0.750123 0.00159145 0.0243255 0.267598 -4.34488 -0.295396 -0.428249 0.00899341 
832 0.798298 0.024608 0.996731 0.244094 -4.37233 0.529402 0.0474456 -0.701562 
871 0.773991 0.0506281 0.995413 0.520559 -4.32108 -0.0728514 -0.441555 0.175779 
1631 0.774042 0.0245486 0.0209425 1.11379 -4.26847 -0.0288831 0.94372 1.26091 
1632 0.798576 0.00208364 0.024489 0.540378 -4.32966 0.547114 -0.963635 0.0307807 
1672 0.800262 0.0497259 0.0232153 0.305287 -4.36071 -0.986638 -0.225762 0.209355 
834 0.847128 0.0236446 0.996337 0.477437 -4.35471 0.669017 0.629592 -0.101387 
835 0.873356 0.000256967 0.996019 0.367941 -4.38333 -0.275922 -0.082202 0.394122 
873 0.824473 0.0498335 0.996197 0.510723 -4.31298 -0.798593 -0.692926 -0.029374 
875 0.874394 0.0491991 0.99858 0.63892 -4.40058 -0.559087 -0.288162 -0.565317 
1633 0.823595 0.0251621 0.0240338 0.101484 -4.32844 0.070713 0.0150129 0.0530121 
1635 0.873491 0.0235736 0.0241579 0.324846 -4.32049 0.00811703 0.729208 -0.351404 
1674 0.847393 0.0496393 0.0236737 0.281126 -4.34902 0.449504 -0.434843 0.493108 
833 0.823133 0.999152 0.996748 0.197558 -4.36379 0.234508 0.109391 0.0467411 
836 0.897883 0.0242256 0.997243 0.341986 -4.35913 0.235209 0.00159616 -0.171647 
877 0.921069 0.0489295 0.997825 0.915397 -4.41495 0.683722 0.717503 -0.230165 
1637 0.925243 0.0256674 0.0237261 0.497592 -4.31607 -0.817739 -0.717729 0.0494538 
1676 0.899141 0.049546 0.0249608 0.212797 -4.35771 -0.606683 0.104423 -0.00695387 
837 0.92312 0.999403 0.997852 0.331299 -4.38577 0.392461 0.114268 -0.197437 
1636 0.899745 0.999916 0.0236287 0.360322 -4.33412 -0.440189 0.397493 0.313938 
800 0.998075 0.0257834 0.997725 5.26225 -4.21523 0.619029 0.0787548 0.464759 
1640 0.998704 0.0512896 0.0245977 0.178234 -4.34217 0.208212 -0.0899586 -0.617371 
838 0.947923 0.0241986 0.996494 0.507726 -4.36637 0.474847 0.534062 0.405537 
879 0.973673 0.0510345 0.998343 0.228528 -4.39131 0.304852 -0.415974 -0.203959 
1638 0.949263 0.999709 0.0218723 0.551887 -4.36506 -0.0741674 0.0471595 1.00927 
1639 0.973183 0.0262207 0.0235603 0.258437 -4.37508 0.318951 -0.591314 -0.21714 
1678 0.947933 0.0497458 0.0235423 0.214413 -4.38073 0.303178 0.554786 -0.0310548 
839 0.972909 0.000585655 0.995821 4.97278 -4.1965 0.933922 -0.369774 0.490873 
842 0.051564 0.0750092 0.997442 0.359537 -4.40945 -0.243067 0.236227 -0.0215759 
881 0.0251731 0.0997609 0.99606 0.570564 -4.34621 0.239573 -0.213988 0.689795 
1641 0.0257447 0.0771944 0.0253453 0.98647 -4.34715 -0.645032 -0.443656 -0.305948 
1682 0.0496637 0.101173 0.0242804 0.30735 -4.30709 -0.0723324 -0.680927 0.172505 
844 0.0986498 0.0734112 0.999261 0.89021 -4.32451 0.753358 0.56684 -0.507276 
883 0.0769042 0.099308 0.998169 0.712311 -4.29557 -0.610903 -0.365748 -0.335372 
1643 0.0735095 0.0753254 0.0259119 0.417259 -4.36663 0.135583 -0.807807 0.156786 
1684 0.0996193 0.0982136 0.0267273 0.503917 -4.37075 0.250444 0.170745 -0.218622 
846 0.15007 0.0776725 0.99834 0.695866 -4.3456 -0.294047 -0.89434 0.310378 
885 0.124426 0.0997054 0.998993 0.346322 -4.35707 -0.549926 -0.584864 0.00597127 
887 0.174871 0.101059 0.000277931 0.304884 -4.39728 -0.0423457 -0.10435 -0.317627 
1645 0.126688 0.0750423 0.0271853 0.841695 -4.3178 -1.17084 -0.0475257 -0.549814 
1647 0.172605 0.0749735 0.0261303 0.424304 -4.37733 0.665765 0.0444403 0.327234 
1686 0.149615 0.100174 0.0252665 0.239044 -4.32979 -0.177557 0.494865 0.338393 
45 0.125125 0.0754395 0.970317 6.88972 -3.81338 -0.289044 0.534736 0.0995798 
47 0.173331 0.0770302 0.972401 14.7859 -3.7769 0.529796 -0.199192 0.0455017 
848 0.198145 0.0757331 -0.000301631 0.372664 -4.37408 0.441892 -0.375189 0.739241 
889 0.225025 0.100045 0.000393761 0.206787 -4.37784 0.151404 -0.2073 0.697766 
1649 0.224065 0.0748649 0.0269903 0.112744 -4.39493 0.211145 0.0187183 -0.358337 
1688 0.198388 0.099844 0.0274587 0.281239 -4.37149 0.480182 0.0364725 -0.430162 
850 0.249767 0.072405 0.000551942 0.637037 -4.35051 0.375607 0.672627 0.491016 
891 0.274638 0.100319 0.00213446 0.38523 -4.37742 0.18836 -0.580736 -0.511562 
1651 0.273732 0.0741796 0.0260092 0.561956 -4.32478 0.286526 0.373874 0.746244 
1690 0.250098 0.0991993 0.0277747 0.219235 -4.34026 -0.152946 0.297027 -0.360817 
852 0.29997 0.0747869 0.00298983 0.708652 -4.38306 0.258103 -0.299239 -0.962855 
854 0.351886 0.0729047 0.000889597 0.755974 -4.37421 -0.391932 0.791285 0.247738 
893 0.325988 0.10083 3.14913e-05 0.333758 -4.36074 0.123927 -0.583573 0.423657 
1653 0.326096 0.0743199 0.025806 0.55916 -4.35533 0.027146 0.0937777 0.44406 
1692 0.301829 0.10038 0.0261559 0.537039 -4.35865 -0.38342 -0.332301 0.549276 
1694 0.349788 0.101397 0.0280604 0.335524 -4.34432 -0.453193 -0.707355 -0.430979 
856 0.399557 0.0743045 0.00173339 0.255345 -4.40197 -0.427083 0.00420662 0.384617 
895 0.374333 0.101437 0.00213713 0.595152 -4.36961 0.56852 -0.81205 -0.675588 
1655 0.37469 0.0761694 0.0284261 0.392512 -4.36023 0.382123 -0.559552 -0.133213 
1696 0.39996 0.100734 0.0284075 0.146632 -4.34202 -0.342179 -0.303428 -0.275482 
858 0.450961 0.0773728 0.000675712 0.825185 -4.37514 -0.525066 -0.683394 0.575667 
897 0.423215 0.0989074 0.000643289 0.547629 -4.37046 0.366594 0.877162 0.383482 
1657 0.42486 0.0769256 0.0285909 0.422268 -4.33198 0.0533107 -0.823633 -0.432432 
1698 0.449924 0.101877 0.0271756 0.136488 -4.36295 -0.419247 -0.148707 -0.124856 
860 0.498767 0.0769597 0.00229329 0.632794 -4.38061 0.0687546 -0.811976 -0.791613 
899 0.475236 0.101976 1.00006 0.386191 -4.36913 -0.624357 -0.329356 0.00773453 
901 0.525069 0.102388 0.000245795 0.525805 -4.37453 -0.664691 -0.649697 0.199334 
1659 0.474655 0.0772662 0.0276307 0.175981 -4.3261 -0.38878 -0.672293 -0.105473 
1661 0.524831 0.0754945 0.0258385 0.360269 -4.34835 0.208558 0.34052 0.859499 
1700 0.500458 0.101239 0.0260788 0.279879 -4.34569 -0.0140815 0.0598196 0.794502 
862 0.550271 0.0772996 0.00063918 0.477172 -4.34589 -0.691061 -0.687808 0.426514 
903 0.575084 0.101736 0.00106465 0.267156 -4.3563 -0.893277 -0.388271 -0.0565401 
1663 0.574276 0.0753648 0.0266021 0.232097 -4.37066 0.0940982 0.301333 0.516748 
1702 0.54937 0.101738 0.0280145 0.161105 -4.39288 0.303085 -0.480976 -0.124338 
864 0.598968 0.0765679 0.00129727 0.24745 -4.42193 -0.0482885 -0.196079 -0.0480549 
905 0.625415 0.101314 -0.000694959 0.584199 -4.39464 -0.890566 -0.211336 1.12377 
1665 0.624654 0.0749216 0.025973 0.283476 -4.37131 0.346928 0.851387 0.268666 
1704 0.598996 0.100685 0.0284442 0.286681 -4.35617 0.494045 -0.171971 -0.0717569 
866 0.649734 0.0763136 0.000121425 0.430726 -4.40498 -0.172466 -0.709489 -0.373303 
868 0.697003 0.0761494 0.997726 0.904469 -4.34496 0.944116 -0.691727 0.0304646 
907 0.673795 0.0999852 0.998103 0.14488 -4.37753 -0.0738825 0.88398 -0.103387 
1667 0.673131 0.0744698 0.0253899 0.589632 -4.34231 0.645992 0.480142 0.488232 
1706 0.65063 0.101156 0.0266399 0.24447 -4.33337 -0.467218 -0.389197 -0.274601 
1708 0.698643 0.100489 0.0251302 0.354403 -4.35966 0.106883 -0.00466153 -0.569794 
870 0.75071 0.0738442 0.997079 1.25762 -4.31397 -0.328851 0.505103 -0.761674 
909 0.724004 0.0999115 0.998006 0.664364 -4.36449 -0.0469961 -0.0670223 -0.480692 
1669 0.724969 0.0747861 0.0212232 0.846939 -4.34763 -0.0369441 0.218128 0.693184 
1710 0.751034 0.100174 0.0216421 0.509158 -4.34423 -0.530372 -0.19762 0.696085 
872 0.799077 0.0743871 0.997236 0.377194 -4.3529 -0.15677 0.257197 -0.212488 
911 0.77393 0.0998857 0.994191 0.65643 -4.33551 0.457746 -0.331573 0.382295 
1671 0.774264 0.0754176 0.0243451 0.33468 -4.3511 0.734698 -0.150662 -0.274959 
1712 0.799606 0.100347 0.0227122 0.231629 -4.35255 0.238218 -0.718487 -0.0885897 
874 0.849189 0.0729475 0.998866 1.13887 -4.30885 -0.125006 0.846718 -1.12954 
913 0.825421 0.0985919 0.995745 0.545613 -4.34922 -0.319587 0.0737367 0.134947 
915 0.873886 0.0993477 0.993948 0.896627 -4.34868 -0.59356 -0.18535 0.724518 
1673 0.822945 0.0743821 0.0237877 0.263026 -4.34952 0.648328 0.414292 0.052214 
1675 0.872324 0.0754458 0.024333 0.423766 -4.32099 0.599399 -0.43641 0.0230698 
1714 0.848232 0.100094 0.0237127 0.179937 -4.34393 0.0319215 -0.315979 0.141112 
876 0.897357 0.074507 0.996956 0.364377 -4.37391 0.218667 -0.116214 -0.00842437 
917 0.92342 0.0963333 0.997292 0.992359 -4.34676 -0.168079 1.16155 -0.352029 
1677 0.922923 0.0753765 0.0246709 0.373186 -4.3462 0.0525799 -0.760513 -0.0642175 
1716 0.896848 0.0984426 0.0245777 0.435439 -4.34258 0.576158 0.616154 -0.494347 
840 0.000530962 0.0753118 0.997859 0.394699 -4.34872 -0.330125 0.648915 -0.232437 
1680 0.997977 0.0987564 0.0255121 0.594182 -4.29793 1.09951 0.305094 -0.476055 
878 0.948708 0.0744209 0.997356 0.252771 -4.36041 -0.43799 0.0922933 0.250573 
919 0.974446 0.0993218 0.99767 0.160035 -4.39716 -0.0626197 0.428779 -0.0143136 
1679 0.974032 0.0758054 0.0225655 0.628759 -4.31986 -0.447571 -0.628426 0.662459 
1718 0.948368 0.0983657 0.0255584 0.304888 -4.3192 0.256857 0.105239 -0.837135 
81 0.0275392 0.123889 0.971248 12.821 -3.80845 -0.351127 -0.0536998 -0.263588 
882 0.0512256 0.122967 0.997646 0.528963 -4.38796 -0.0589214 0.743012 -0.0895763 
921 0.0252328 0.148806 0.998935 0.193823 -4.38067 0.159868 0.179881 0.0894077 
922 0.0501333 0.173594 0.997563 0.40321 -4.38112 0.200401 0.28049 0.896441 
1681 0.0246686 0.124639 0.0246182 0.255481 -4.33082 -0.150119 -0.332988 0.193212 
1721 0.0256888 0.174542 0.0252053 0.26751 -4.36576 0.0487145 -0.57084 0.491261 
1722 0.0500413 0.147704 0.0252897 0.194776 -4.38014 -0.00812057 0.393654 -0.0783766 
920 0.000446409 0.173955 0.000968224 0.345871 -4.39507 -0.217239 -0.15159 -0.585446 
884 0.0985823 0.124374 0.999334 0.605542 -4.32123 0.669836 -0.151476 -0.56872 
923 0.0760681 0.149817 1.00032 0.886602 -4.32847 -0.971955 -0.465005 -1.01886 
924 0.0991631 0.17289 0.998424 0.337535 -4.37392 0.560832 0.385265 0.066508 
1683 0.0751039 0.122952 0.0250872 0.279643 -4.34294 -0.115609 0.625717 -0.00686669 
1723 0.0742473 0.173571 0.0256539 0.224695 -4.34554 0.326724 0.0810622 0.247015 
1724 0.100752 0.147816 0.024706 0.462911 -4.30601 -0.245284 1.04932 0.905772 
886 0.150018 0.125968 0.998893 0.38877 -4.37044 0.425885 -0.417108 0.657576 
925 0.12557 0.149528 0.998803 0.272114 -4.30762 -0.422831 0.413174 0.38681 
926 0.150731 0.173402 -0.000129672 0.278676 -4.39749 -0.194706 0.266922 -0.400897 
927 0.176176 0.148386 0.000560172 0.421956 -4.37413 -0.451174 0.982207 -0.793064 
1685 0.123701 0.123574 0.0255906 0.351073 -4.37065 0.659712 0.388523 -0.265761 
1687 0.174594 0.12522 0.0253385 0.183532 -4.33616 0.241245 -0.188264 0.855926 
1725 0.125539 0.174543 0.0248759 0.241874 -4.33742 -0.090649 -0.212424 0.452902 
1726 0.1507 0.150459 0.0269095 0.380661 -4.33863 -0.648197 -0.538276 -0.113956 
1727 0.175898 0.174185 0.0257556 0.392563 -4.35015 -0.266485 0.165791 0.889265 
125 0.125393 0.172888 0.972018 16.4198 -3.75553 -0.250735 0.492964 0.395567 
126 0.151158 0.149101 0.970242 13.2383 -3.78386 -0.0740384 -0.113331 0.503121 
888 0.200483 0.12599 0.998734 0.599653 -4.37061 0.405097 -0.713474 0.587682 
928 0.200044 0.174722 0.0016323 0.321671 -4.40989 0.689153 -0.242227 -0.895415 
929 0.226358 0.149953 -9.56769e-05 0.296333 -4.40288 -0.600627 0.25073 0.240405 
1689 0.224033 0.123861 0.0260022 0.496353 -4.34101 0.295146 0.0535409 0.345122 
1728 0.200858 0.149385 0.0272834 0.214215 -4.37312 -0.0508052 0.174536 0.0179749 
1729 0.225182 0.176508 0.0283421 0.598461 -4.2941 -0.0393763 -1.4852 -0.342325 
128 0.200851 0.149283 0.972469 11.8186 -3.76096 -0.0837089 0.132322 0.222976 
890 0.250563 0.126655 0.00182182 0.760868 -4.37366 -0.198271 -1.13282 -0.0526328 
930 0.250185 0.174894 0.00280172 0.442717 -4.41687 0.180936 0.0698987 -0.852634 
931 0.274868 0.149559 0.00108901 0.205106 -4.39736 0.360981 0.437199 0.631064 
1691 0.276094 0.123656 0.0269914 0.330031 -4.32669 -0.41431 0.644541 0.137635 
1730 0.249669 0.14993 0.0278369 0.220641 -4.34501 0.239085 0.0347553 0.17527 
1731 0.275867 0.174712 0.0286821 0.267672 -4.32511 -0.619 -0.311114 -0.835333 
130 0.252746 0.149504 0.974098 14.8593 -3.77896 -0.693652 0.448045 -0.0653821 
892 0.300348 0.125023 0.00109144 0.107785 -4.41349 0.337797 0.217082 -0.111658 
894 0.350243 0.125128 -9.68446e-05 0.358506 -4.36585 -0.0492117 1.03913 0.287649 
932 0.298901 0.174704 0.000451136 0.528253 -4.3778 0.789731 0.27145 0.436255 
933 0.325882 0.153005 -0.000161501 0.892368 -4.37764 -0.134178 -1.05537 0.441405 
934 0.350107 0.176082 9.55334e-05 0.155353 -4.40454 0.109364 0.271404 0.401379 
1693 0.325105 0.126925 0.0274122 0.299828 -4.37039 0.70266 -0.552741 -0.263033 
1732 0.301438 0.150192 0.0270781 0.240823 -4.35474 -0.529733 0.244931 -0.244146 
1733 0.325573 0.17581 0.0289726 0.463219 -4.35483 -0.0436376 -0.321732 -0.660577 
1734 0.350893 0.151227 0.0276531 0.227236 -4.3509 -0.280064 -0.43239 -0.418461 
896 0.399846 0.125023 0.000783145 0.181079 -4.40539 -0.104226 0.127724 0.161195 
935 0.374839 0.15111 0.000983648 0.228933 -4.4327 0.0415004 -0.252349 -0.153039 
936 0.39896 0.17704 0.000259487 0.352269 -4.36076 0.566032 -0.632695 0.472395 
1695 0.374095 0.124708 0.0276512 0.264926 -4.34459 0.559034 0.708316 -0.00953619 
1735 0.376172 0.177293 0.0262846 0.604663 -4.34114 -0.432243 -0.63526 0.49279 
1736 0.400164 0.150224 0.0265245 0.125408 -4.38841 0.0715287 0.0830099 0.166448 
898 0.448624 0.126429 0.999819 0.291699 -4.41708 0.149932 -0.522705 0.182232 
937 0.424701 0.151164 -0.00093342 0.41448 -4.35034 -0.138509 -0.0437587 0.898646 
938 0.448696 0.175676 0.00164065 0.23468 -4.40422 0.122505 0.349583 -0.426437 
1697 0.424499 0.125202 0.0273789 0.0705898 -4.36669 0.122564 0.0957181 -0.118459 
1737 0.425436 0.175522 0.0277848 0.22807 -4.36847 -0.710084 0.275803 -0.286569 
1738 0.448757 0.150232 0.027406 0.148834 -4.3764 0.194961 -0.163577 -0.258976 
900 0.499552 0.12547 0.00100543 0.257328 -4.40855 0.131299 0.635794 -0.505172 
939 0.474418 0.15168 0.00130044 0.267005 -4.42901 -0.020093 -0.387589 -0.609153 
940 0.499991 0.174898 -0.000204841 0.317422 -4.39054 -0.34191 0.4333 0.0465571 
941 0.524743 0.150383 1.00023 0.221903 -4.39878 -0.254774 0.195489 0.298549 
1699 0.474628 0.125791 0.0263932 0.110825 -4.37926 -0.244263 0.235572 0.178855 
1701 0.525051 0.126262 0.0285865 0.203019 -4.34073 -0.451187 0.0155173 -0.191341 
1739 0.473211 0.174999 0.0282336 0.270871 -4.34546 0.520417 0.207531 0.00604584 
1740 0.498816 0.151286 0.0274972 0.198755 -4.37913 0.571657 -0.0253441 0.22485 
1741 0.524212 0.176036 0.0261224 0.597653 -4.35132 0.145241 -0.498171 1.00677 
902 0.548041 0.126423 0.00128934 0.377471 -4.38395 0.957591 0.103532 -0.0954996 
942 0.550137 0.175482 0.00147496 0.21723 -4.39651 0.04513 -0.259075 -0.189829 
943 0.57429 0.150215 0.999676 0.2854 -4.39872 -0.115933 0.0343777 0.769941 
1703 0.575084 0.125665 0.0273582 0.192557 -4.3617 -0.466391 -0.00657118 0.403386 
1742 0.548987 0.150176 0.0303104 1.00749 -4.30238 0.0828184 0.204375 -1.28702 
1743 0.574232 0.174417 0.026232 0.39795 -4.35254 0.248007 0.24585 0.600181 
105 0.623569 0.123665 0.971956 9.53238 -3.89703 -0.192655 0.773678 -0.0997675 
904 0.598016 0.124687 0.000774196 0.405097 -4.3472 1.22662 0.280741 0.0280422 
944 0.599595 0.174704 0.999567 0.170579 -4.38331 -0.270177 -0.265993 0.34395 
945 0.624217 0.147975 0.999803 0.391232 -4.38907 -0.0505058 0.664092 -0.0797879 
1705 0.624939 0.125018 0.0277921 0.221065 -4.36249 -0.0372566 0.105587 -0.341119 
1744 0.600266 0.149907 0.0267503 0.110474 -4.36749 -0.192073 -0.0732885 0.226158 
1745 0.623545 0.174212 0.0265131 0.282041 -4.3307 1.01003 0.245257 -0.0647362 
906 0.64938 0.125186 0.99877 0.0968759 -4.35887 0.214117 -0.297056 0.156108 
908 0.701069 0.125111 0.996206 0.987596 -4.35411 -0.943859 -0.280146 0.534569 
946 0.648686 0.174462 0.996716 0.757369 -4.37562 -0.157172 -0.103728 0.955073 
947 0.67473 0.148673 0.997826 0.389207 -4.38672 -0.0578392 0.563746 0.0195658 
948 0.697957 0.175375 0.999046 0.296598 -4.36489 0.0475773 -0.378803 -0.30072 
1707 0.674453 0.124739 0.0258839 0.181807 -4.31514 0.383969 0.380802 -0.283836 
1746 0.650688 0.150496 0.0247435 0.396272 -4.35972 -0.365582 -0.0490909 0.499477 
1747 0.67462 0.175257 0.0252776 0.138759 -4.31254 -0.184831 -0.270998 0.372169 
1748 0.699563 0.149753 0.0254433 0.228607 -4.35706 -0.00638156 0.135311 -0.420764 
146 0.647909 0.148043 0.972006 12.025 -3.97456 -0.0542124 0.503908 -0.32584 
910 0.75006 0.123531 0.994789 0.311477 -4.34426 -0.567495 0.920495 -0.0550002 
949 0.723744 0.150105 0.997686 0.590178 -4.32575 0.128238 -0.317341 -0.426332 
1709 0.726609 0.124612 0.0241204 0.440409 -4.34035 -0.672452 0.340796 -0.279073 
1749 0.726464 0.173922 0.023855 0.378585 -4.36711 -0.333982 0.29603 -0.038584 
1750 0.752249 0.149014 0.0217424 0.512102 -4.35174 -0.637856 0.0150206 -0.0688512 
912 0.79867 0.123236 0.995293 0.636672 -4.22104 0.700929 0.441904 0.209455 
951 0.775398 0.148433 0.993396 0.719513 -4.30502 -1.12591 -0.280781 0.1928 
952 0.798769 0.17306 0.991809 1.11991 -4.45873 0.481716 0.399188 0.65436 
1711 0.775745 0.123582 0.0221357 0.183111 -4.31872 -0.658621 0.192397 0.0475258 
1751 0.774497 0.174882 0.0212258 0.326251 -4.36179 0.306958 -0.47941 -0.241601 
1752 0.798474 0.148435 0.0206427 0.47346 -4.37285 0.624382 0.505201 0.186288 
914 0.849038 0.123666 0.996731 0.558266 -4.28815 0.780452 -0.430611 -0.432131 
953 0.826224 0.148016 0.995602 0.521224 -4.30683 -1.14405 0.333192 0.0972426 
954 0.849613 0.173684 0.997749 0.626194 -4.38087 -0.0360701 0.129733 -0.59087 
955 0.874621 0.147955 0.995947 0.424343 -4.36465 -0.0388803 0.0996776 0.310645 
1713 0.824501 0.12544 0.0217876 0.549838 -4.31243 -0.374208 -0.659154 0.84806 
1715 0.873461 0.123936 0.0239637 0.139391 -4.36273 0.113705 -0.0681032 -0.0641158 
1753 0.823779 0.173731 0.0213759 0.239535 -4.37397 -0.278081 0.00731853 0.0648096 
1754 0.849013 0.148969 0.0252171 0.57167 -4.33924 0.0298725 -0.179848 -0.979264 
1755 0.872663 0.17272 0.0229704 0.420976 -4.32665 0.737056 0.828047 0.304984 
916 0.89748 0.123413 0.994867 0.839581 -4.33379 0.357732 -0.49307 0.775928 
956 0.899051 0.173396 0.99736 0.220796 -4.3849 -0.433096 -0.404407 0.139061 
957 0.921814 0.148356 0.998781 0.588194 -4.36217 0.662423 0.217108 0.689322 
1717 0.92296 0.122357 0.023445 0.362401 -4.38053 -0.307886 0.261995 0.114026 
1756 0.898039 0.147766 0.0249274 0.372381 -4.33013 0.0206779 0.215927 -0.322925 
1757 0.92228 0.174579 0.0258787 0.374497 -4.33315 0.448859 -0.406133 -0.0720679 
880 1.00098 0.124265 -8.52362e-05 0.529427 -4.36798 -0.745036 -0.150731 -0.384953 
1720 -0.000618206 0.150111 0.0271524 0.510824 -4.35475 0.340406 -0.729811 -0.549667 
918 0.948661 0.122945 0.999263 0.242142 -4.39547 -0.0373996 0.130224 0.201783 
958 0.947406 0.174137 0.000829769 0.503275 -4.36112 0.984655 -0.636232 0.142863 
959 0.974306 0.147908 0.000345705 0.234821 -4.39137 0.0885909 0.273494 0.140227 
1719 0.974284 0.123 0.0256117 0.147584 -4.35044 -0.436077 0.324736 -0.198829 
1758 0.949123 0.148857 0.0259688 0.19332 -4.36432 -0.521251 -0.206168 -0.307999 
1759 0.974768 0.174276 0.0257715 0.0571966 -4.35624 -0.217985 0.0514931 -0.13155 
961 0.0260586 0.199373 0.998362 0.606009 -4.40356 -0.340897 -0.131285 0.430603 
962 0.0488526 0.224661 -0.000102297 0.365571 -4.34372 0.796626 0.00537599 -0.433174 
1761 0.0260761 0.224855 0.0260424 0.359408 -4.35242 -0.620119 -0.532345 0.475142 
1762 0.0492465 0.198714 0.0265186 0.240494 -4.3383 0.712622 0.184623 -0.209753 
963 0.0744198 0.198964 2.13178e-05 0.189239 -4.41213 0.256219 0.257007 0.389673 
964 0.10044 0.225318 0.000169499 0.250907 -4.34931 -1.10255 -0.193101 0.233009 
1763 0.0747332 0.225582 0.0269767 0.469958 -4.29759 -0.0723787 -1.3298 -0.911087 
1764 0.100561 0.197951 0.0265915 0.428816 -4.31188 -0.703426 0.687114 -0.67268 
166 0.149591 0.199824 0.975679 15.6941 -3.78344 -0.217202 -0.0847259 -0.458743 
965 0.122868 0.19965 -0.0004027 0.62334 -4.35016 0.966182 -0.811167 -0.019917 
966 0.149006 0.223809 0.00104074 0.234505 -4.37271 0.590909 0.0962123 -0.088641 
967 0.175102 0.198826 0.999539 0.298585 -4.37476 0.115251 0.180023 0.390706 
1765 0.12385 0.224105 0.0255474 0.392616 -4.36143 0.609076 0.157868 0.828296 
1766 0.150874 0.199801 0.0265581 0.287565 -4.37397 -0.55524 -0.691804 -0.333096 
1767 0.175583 0.222625 0.027119 0.28776 -4.34183 -0.0388504 0.759584 0.100667 
168 0.200683 0.198838 0.973705 10.9889 -3.79219 0.105415 -0.0928479 0.0455018 
968 0.200187 0.222301 0.00108984 0.416048 -4.38357 0.0876976 0.524725 0.267163 
969 0.225536 0.200036 0.00135193 0.171138 -4.39991 -0.378278 -0.372944 -0.0511198 
1768 0.199797 0.199225 0.0286355 0.269097 -4.3064 -0.202602 -0.169188 -0.675151 
1769 0.223543 0.225192 0.0297481 0.883143 -4.30953 0.565929 -0.371512 -1.27841 
970 0.250232 0.2243 1.00095 0.167144 -4.40063 -0.04409 -0.0471715 0.135962 
971 0.275826 0.20006 0.00119799 0.188019 -4.41418 -0.523282 -0.0830346 0.260211 
1770 0.249097 0.200678 0.0277168 0.35826 -4.35578 0.808481 -0.127234 0.121517 
1771 0.275433 0.224519 0.0280767 0.19681 -4.32191 -0.662703 0.0446325 -0.348756 
972 0.298624 0.225481 0.00207084 0.541605 -4.38589 0.562041 -0.710598 -0.642652 
973 0.324337 0.200101 0.00217432 0.348551 -4.45256 -0.0512276 -0.302803 -0.638991 
974 0.34862 0.224459 0.000382792 0.398875 -4.36429 0.90899 0.680731 0.461048 
1772 0.300585 0.199713 0.0278845 0.195963 -4.33796 -0.215294 -0.0109539 -0.273017 
1773 0.324723 0.225007 0.0266626 0.146065 -4.35922 0.184086 0.274214 0.688142 
1774 0.35063 0.201076 0.0276596 0.232096 -4.36981 -0.302213 -0.549855 -0.0246845 
975 0.375238 0.201065 1.00028 0.224347 -4.40603 -0.237134 0.222116 0.21052 
976 0.398978 0.226304 0.00122141 0.282578 -4.35946 0.0662693 -0.222084 -0.099269 
1775 0.374311 0.225258 0.0269275 0.203148 -4.37011 0.371434 0.320979 0.320205 
1776 0.39971 0.202188 0.029871 0.832918 -4.31295 -0.069982 -0.594916 -0.781972 
977 0.421437 0.202196 0.00153663 1.2071 -4.36282 1.06278 -0.745891 0.332943 
978 0.448546 0.22359 0.000865061 0.526709 -4.38855 0.306899 0.847888 0.191765 
1777 0.424579 0.226019 0.0287789 0.28284 -4.35954 -0.0437093 0.0562982 -0.384497 
1778 0.450227 0.201174 0.0275583 0.507463 -4.3447 -0.810242 -0.638487 -0.0121868 
178 0.448348 0.200224 0.97536 15.7118 -3.74529 0.349224 -0.0186367 -0.0992415 
979 0.474588 0.199387 0.00176405 0.396772 -4.3774 0.117327 0.0931612 -0.643335 
980 0.49958 0.223716 0.000667214 0.293904 -4.3588 -0.234278 0.342857 0.345955 
981 0.524938 0.19993 0.000221613 0.178488 -4.40456 -0.290933 0.20427 0.430626 
1779 0.473768 0.22547 0.0274333 0.226992 -4.36577 0.468971 0.0643599 -0.103405 
1780 0.497807 0.199375 0.0281356 0.380269 -4.36865 0.618596 0.245158 -0.0554424 
1781 0.523639 0.224277 0.0282984 0.11423 -4.35705 -0.137104 -0.12635 -0.0082832 
982 0.549455 0.223749 0.00200277 0.486614 -4.40637 0.291951 0.420214 -0.669782 
983 0.57558 0.200873 0.00210723 0.763696 -4.35772 -0.357696 -0.628815 -1.19367 
1782 0.548594 0.200592 0.0287177 0.504657 -4.34037 0.818084 -0.674794 -0.57758 
1783 0.575671 0.224382 0.0266422 0.447719 -4.33197 -0.656208 0.337852 0.781368 
183 0.573181 0.226723 0.97289 13.5025 -3.81652 0.385311 -0.478588 0.552361 
984 0.598294 0.226328 0.000456049 0.399947 -4.35476 0.586949 -0.360926 -0.688289 